 Entering Gaussian System, Link 0=g09
 Input=anti_MeCOH_sing_IRCr_B3LYP_P_tight.com
 Output=anti_MeCOH_sing_IRCr_B3LYP_P_tight.log
 Initial command:
 /usr/local/bin/gaussian09-A.02/g09/l1.exe /scratch/gaussian/Gau-12434.inp -scrdir=/scratch/gaussian/
 Entering Link 1 = /usr/local/bin/gaussian09-A.02/g09/l1.exe PID=     12435.
  
 Copyright (c) 1988,1990,1992,1993,1995,1998,2003,2009, Gaussian, Inc.
                  All Rights Reserved.
  
 This is part of the Gaussian(R) 09 program.  It is based on
 the Gaussian(R) 03 system (copyright 2003, Gaussian, Inc.),
 the Gaussian(R) 98 system (copyright 1998, Gaussian, Inc.),
 the Gaussian(R) 94 system (copyright 1995, Gaussian, Inc.),
 the Gaussian 92(TM) system (copyright 1992, Gaussian, Inc.),
 the Gaussian 90(TM) system (copyright 1990, Gaussian, Inc.),
 the Gaussian 88(TM) system (copyright 1988, Gaussian, Inc.),
 the Gaussian 86(TM) system (copyright 1986, Carnegie Mellon
 University), and the Gaussian 82(TM) system (copyright 1983,
 Carnegie Mellon University). Gaussian is a federally registered
 trademark of Gaussian, Inc.
  
 This software contains proprietary and confidential information,
 including trade secrets, belonging to Gaussian, Inc.
  
 This software is provided under written license and may be
 used, copied, transmitted, or stored only in accord with that
 written license.
  
 The following legend is applicable only to US Government
 contracts under FAR:
  
                    RESTRICTED RIGHTS LEGEND
  
 Use, reproduction and disclosure by the US Government is
 subject to restrictions as set forth in subparagraphs (a)
 and (c) of the Commercial Computer Software - Restricted
 Rights clause in FAR 52.227-19.
  
 Gaussian, Inc.
 340 Quinnipiac St., Bldg. 40, Wallingford CT 06492
  
  
 ---------------------------------------------------------------
 Warning -- This program may not be used in any manner that
 competes with the business of Gaussian, Inc. or will provide
 assistance to any competitor of Gaussian, Inc.  The licensee
 of this program is prohibited from giving any competitor of
 Gaussian, Inc. access to this program.  By using this program,
 the user acknowledges that Gaussian, Inc. is engaged in the
 business of creating and licensing software in the field of
 computational chemistry and represents and warrants to the
 licensee that it is not a competitor of Gaussian, Inc. and that
 it will not use this program in any manner prohibited above.
 ---------------------------------------------------------------
  

 Cite this work as:
 Gaussian 09, Revision A.02,
 M. J. Frisch, G. W. Trucks, H. B. Schlegel, G. E. Scuseria, 
 M. A. Robb, J. R. Cheeseman, G. Scalmani, V. Barone, B. Mennucci, 
 G. A. Petersson, H. Nakatsuji, M. Caricato, X. Li, H. P. Hratchian, 
 A. F. Izmaylov, J. Bloino, G. Zheng, J. L. Sonnenberg, M. Hada, 
 M. Ehara, K. Toyota, R. Fukuda, J. Hasegawa, M. Ishida, T. Nakajima, 
 Y. Honda, O. Kitao, H. Nakai, T. Vreven, J. A. Montgomery, Jr., 
 J. E. Peralta, F. Ogliaro, M. Bearpark, J. J. Heyd, E. Brothers, 
 K. N. Kudin, V. N. Staroverov, R. Kobayashi, J. Normand, 
 K. Raghavachari, A. Rendell, J. C. Burant, S. S. Iyengar, J. Tomasi, 
 M. Cossi, N. Rega, J. M. Millam, M. Klene, J. E. Knox, J. B. Cross, 
 V. Bakken, C. Adamo, J. Jaramillo, R. Gomperts, R. E. Stratmann, 
 O. Yazyev, A. J. Austin, R. Cammi, C. Pomelli, J. W. Ochterski, 
 R. L. Martin, K. Morokuma, V. G. Zakrzewski, G. A. Voth, 
 P. Salvador, J. J. Dannenberg, S. Dapprich, A. D. Daniels, 
 O. Farkas, J. B. Foresman, J. V. Ortiz, J. Cioslowski, 
 and D. J. Fox, Gaussian, Inc., Wallingford CT, 2009.
 
 ******************************************
 Gaussian 09:  AM64L-G09RevA.02 11-Jun-2009
                22-Aug-2010 
 ******************************************
 %NProcShared=4
 Will use up to    4 processors via shared memory.
 %mem=6000MB
 ----------------------------------------------------------------------
 #p B3LYP/6-311++G** IRC=(CalcFC,Reverse,Tight,MaxPoints=100,ReCalc=5,M
 axCycle=40,Report) Int=UltraFine
 ----------------------------------------------------------------------
 1/6=40,7=10,10=4,14=-1,18=20,22=2,26=3,38=1,42=100,44=3,71=5,129=111000/1,23;
 2/9=110,12=2,17=6,18=5,29=1,40=1/2;
 3/5=4,6=6,7=1111,11=2,16=1,25=1,30=1,71=2,74=-5,75=-5/1,2,3;
 4//1;
 5/5=2,38=5/2;
 8/6=4,10=90,11=11/1;
 11/6=1,8=1,9=11,15=111,16=1/1,2,10;
 10/6=1,7=6,13=1/2;
 6/7=2,8=2,9=2,10=2,28=1/1;
 7/10=1,18=20,25=1/1,2,3,16;
 1/6=40,7=10,10=4,14=-1,18=20,22=2,42=100,44=3,71=5,129=111000/23(3);
 2/9=110,29=1/2;
 7/9=1,25=1,44=-1/16;
 99//99;
 2/9=110,29=1/2;
 3/5=4,6=6,7=1111,11=2,16=1,25=1,30=1,71=2,74=-5,75=-5/1,2,3;
 4/5=5,16=3/1;
 5/5=2,38=5/2;
 8/6=4,10=90,11=11/1;
 11/6=1,8=1,9=11,15=111,16=1/1,2,10;
 10/6=1,7=6,13=1/2;
 7/10=1,18=20,25=1/1,2,3,16;
 1/6=40,7=10,14=-1,18=20,22=2,42=100,44=3,71=5,129=111000/23(-8);
 2/9=110,29=1/2;
 6/7=2,8=2,9=2,10=2,19=2,28=1/1;
 7/9=1,25=1,44=-1/16;
 99/9=1/99;
 Leave Link    1 at Sun Aug 22 15:49:09 2010, MaxMem=  786432000 cpu:       0.2
 (Enter /usr/local/bin/gaussian09-A.02/g09/l101.exe)
 --------------
 anti_MeCOH_TSd
 --------------
 Symbolic Z-matrix:
 Charge =  0 Multiplicity = 1
 6                     0.        0.52413   0. 
 8                    -1.22282   0.06433   0. 
 6                     1.10654  -0.46733   0. 
 1                    -1.05431   1.22339   0. 
 1                     0.71768  -1.49304   0. 
 1                     1.73997  -0.29288   0.87642 
 1                     1.73997  -0.29288  -0.87642 
 
 NAtoms=      7 NQM=      7 NQMF=      0 NMic=      0 NMicF=      0 NTot=      7.
                    Isotopes and Nuclear Properties:
 (Nuclear quadrupole moments (NQMom) in fm**2, nuclear magnetic moments (NMagM)
  in nuclear magnetons)

  Atom         1           2           3           4           5           6           7
 IAtWgt=          12          16          12           1           1           1           1
 AtmWgt=  12.0000000  15.9949146  12.0000000   1.0078250   1.0078250   1.0078250   1.0078250
 NucSpn=           0           0           0           1           1           1           1
 AtZEff=   0.0000000   0.0000000   0.0000000   0.0000000   0.0000000   0.0000000   0.0000000
 NQMom=    0.0000000   0.0000000   0.0000000   0.0000000   0.0000000   0.0000000   0.0000000
 NMagM=    0.0000000   0.0000000   0.0000000   2.7928460   2.7928460   2.7928460   2.7928460
 Leave Link  101 at Sun Aug 22 15:49:09 2010, MaxMem=  786432000 cpu:       0.5
 (Enter /usr/local/bin/gaussian09-A.02/g09/l123.exe)
 IRC-IRC-IRC-IRC-IRC-IRC-IRC-IRC-IRC-IRC-IRC-IRC-IRC-IRC-IRC-IRC-IRC-IRC
 ------------------------------------------------------------------------
 INPUT DATA FOR L123
 ------------------------------------------------------------------------
 GENERAL PARAMETERS:
 Rxn path following direction = Reverse
 Maximum points per path      = 100
 Step size                    =   0.100 bohr
 Integration scheme           = HPC                                 
    Redo corrector integration= Yes                                 
    Max correction cycles     =  40
 Initial Hessian              = CalcFC
 Hessian evaluation           = Every   5 predictor steps
    Hessian updating method   = Bofill                              
 ------------------------------------------------------------------------
 IRC-IRC-IRC-IRC-IRC-IRC-IRC-IRC-IRC-IRC-IRC-IRC-IRC-IRC-IRC-IRC-IRC-IRC
 Leave Link  123 at Sun Aug 22 15:49:09 2010, MaxMem=  786432000 cpu:       0.0
 (Enter /usr/local/bin/gaussian09-A.02/g09/l202.exe)
                          Input orientation:                          
 ---------------------------------------------------------------------
 Center     Atomic      Atomic             Coordinates (Angstroms)
 Number     Number       Type             X           Y           Z
 ---------------------------------------------------------------------
      1          6           0        0.000000    0.524129    0.000000
      2          8           0       -1.222816    0.064329    0.000000
      3          6           0        1.106539   -0.467331    0.000000
      4          1           0       -1.054312    1.223390    0.000000
      5          1           0        0.717675   -1.493037    0.000000
      6          1           0        1.739966   -0.292884    0.876417
      7          1           0        1.739966   -0.292884   -0.876417
 ---------------------------------------------------------------------
                    Distance matrix (angstroms):
                    1          2          3          4          5
     1  C    0.000000
     2  O    1.306405   0.000000
     3  C    1.485739   2.389259   0.000000
     4  H    1.265124   1.171245   2.743686   0.000000
     5  H    2.141032   2.488151   1.096945   3.243287   0.000000
     6  H    2.112605   3.110271   1.095339   3.297754   1.803761
     7  H    2.112605   3.110271   1.095339   3.297754   1.803761
                    6          7
     6  H    0.000000
     7  H    1.752834   0.000000
 Symmetry turned off by external request.
 Stoichiometry    C2H4O
 Framework group  CS[SG(C2H2O),X(H2)]
 Deg. of freedom    10
 Full point group                 CS      NOp   2
 Rotational constants (GHZ):     59.7151295      9.9758930      9.0203207
 Leave Link  202 at Sun Aug 22 15:49:09 2010, MaxMem=  786432000 cpu:       0.0
 (Enter /usr/local/bin/gaussian09-A.02/g09/l301.exe)
 Standard basis: 6-311++G(d,p) (5D, 7F)
 Ernie: Thresh=  0.10000D-02 Tol=  0.10000D-05 Strict=F.
 Integral buffers will be    131072 words long.
 Raffenetti 2 integral format.
 Two-electron integral symmetry is turned off.
    94 basis functions,   144 primitive gaussians,    97 cartesian basis functions
    12 alpha electrons       12 beta electrons
       nuclear repulsion energy        69.1547395479 Hartrees.
 IExCor=  402 DFT=T Ex+Corr=B3LYP ExCW=0 ScaHFX=  0.200000
 ScaDFX=  0.800000  0.720000  1.000000  0.810000 ScalE2=  1.000000  1.000000
 IRadAn=      5 IRanWt=     -1 IRanGd=            0 ICorTp=0
 NAtoms=    7 NActive=    7 NUniq=    7 SFac= 7.50D-01 NAtFMM=   80 NAOKFM=F Big=F
 Leave Link  301 at Sun Aug 22 15:49:09 2010, MaxMem=  786432000 cpu:       0.3
 (Enter /usr/local/bin/gaussian09-A.02/g09/l302.exe)
 NPDir=0 NMtPBC=     1 NCelOv=     1 NCel=       1 NClECP=     1 NCelD=      1
         NCelK=      1 NCelE2=     1 NClLst=     1 CellRange=     0.0.
 One-electron integrals computed using PRISM.
 NBasis=    94 RedAO= T  NBF=    94
 NBsUse=    94 1.00D-06 NBFU=    94
 Precomputing XC quadrature grid using
 IXCGrd= 2 IRadAn=           5 IRanWt=          -1 IRanGd=           0 AccXCQ= 1.00D-10.
 NRdTot=     594 NPtTot=      159582 NUsed=      163844 NTot=      163876
 NSgBfM=    97    97    97    97    97 NAtAll=     7     7.
 Leave Link  302 at Sun Aug 22 15:49:09 2010, MaxMem=  786432000 cpu:       1.1
 (Enter /usr/local/bin/gaussian09-A.02/g09/l303.exe)
 DipDrv:  MaxL=1.
 Leave Link  303 at Sun Aug 22 15:49:09 2010, MaxMem=  786432000 cpu:       0.2
 (Enter /usr/local/bin/gaussian09-A.02/g09/l401.exe)
 Harris functional with IExCor=  402 diagonalized for initial guess.
 ExpMin= 3.60D-02 ExpMax= 8.59D+03 ExpMxC= 1.30D+03 IAcc=3 IRadAn=         5 AccDes= 0.00D+00
 HarFok:  IExCor=  402 AccDes= 0.00D+00 IRadAn=         5 IDoV= 1
 ScaDFX=  1.000000  1.000000  1.000000  1.000000
 FoFCou: FMM=F IPFlag=           0 FMFlag=      100000 FMFlg1=           0
         NFxFlg=           0 DoJE=T BraDBF=F KetDBF=T FulRan=T
         Omega=  0.000000  0.000000  1.000000  0.000000  0.000000 ICntrl=     500 IOpCl=  0
         NMat0=    1 NMatS0=    1 NMatT0=    0 NMatD0=    1 NMtDS0=    0 NMtDT0=    0
         I1Cent=           4 NGrid=           0.
 Symmetry not used in FoFCou.
 Harris En= -153.783627256781    
 Leave Link  401 at Sun Aug 22 15:49:10 2010, MaxMem=  786432000 cpu:       3.5
 (Enter /usr/local/bin/gaussian09-A.02/g09/l502.exe)
 Closed shell SCF:
 Requested convergence on RMS density matrix=1.00D-08 within 128 cycles.
 Requested convergence on MAX density matrix=1.00D-06.
 Requested convergence on             energy=1.00D-06.
 No special actions if energy rises.
 Using DIIS extrapolation, IDIIS=  1040.
 Two-electron integral symmetry not used.
       163768 words used for storage of precomputed grid.
 Keep R1 ints in memory in canonical form, NReq=12429260.
 IEnd=      211319 IEndB=      211319 NGot=   786432000 MDV=   774948919
 LenX=   774948919 LenY=   774939069
 Symmetry not used in FoFDir.
 MinBra= 0 MaxBra= 2 Meth= 1.
 IRaf=       0 NMat=   1 IRICut=       1 DoRegI=T DoRafI=F ISym2E= 0 JSym2E=0.

 Cycle   1  Pass 1  IDiag  1:
 E= -153.645866771112    
 DIIS: error= 3.92D-02 at cycle   1 NSaved=   1.
 NSaved= 1 IEnMin= 1 EnMin= -153.645866771112     IErMin= 1 ErrMin= 3.92D-02
 ErrMax= 3.92D-02 EMaxC= 1.00D-01 BMatC= 1.23D-01 BMatP= 1.23D-01
 IDIUse=3 WtCom= 6.08D-01 WtEn= 3.92D-01
 Coeff-Com:  0.100D+01
 Coeff-En:   0.100D+01
 Coeff:      0.100D+01
 Gap=     0.159 Goal=   None    Shift=    0.000
 GapD=    0.159 DampG=1.000 DampE=0.500 DampFc=0.5000 IDamp=-1.
 Damping current iteration by 5.00D-01
 RMSDP=8.03D-03 MaxDP=1.34D-01              OVMax= 1.78D-01

 Cycle   2  Pass 1  IDiag  1:
 E= -153.680918814191     Delta-E=       -0.035052043079 Rises=F Damp=T
 DIIS: error= 1.23D-02 at cycle   2 NSaved=   2.
 NSaved= 2 IEnMin= 2 EnMin= -153.680918814191     IErMin= 2 ErrMin= 1.23D-02
 ErrMax= 1.23D-02 EMaxC= 1.00D-01 BMatC= 1.29D-02 BMatP= 1.23D-01
 IDIUse=3 WtCom= 8.77D-01 WtEn= 1.23D-01
 Coeff-Com:  0.176D+00 0.824D+00
 Coeff-En:   0.286D+00 0.714D+00
 Coeff:      0.190D+00 0.810D+00
 Gap=     0.171 Goal=   None    Shift=    0.000
 RMSDP=2.11D-03 MaxDP=3.04D-02 DE=-3.51D-02 OVMax= 1.31D-01

 Cycle   3  Pass 1  IDiag  1:
 E= -153.730022031504     Delta-E=       -0.049103217312 Rises=F Damp=F
 DIIS: error= 2.18D-02 at cycle   3 NSaved=   3.
 NSaved= 3 IEnMin= 3 EnMin= -153.730022031504     IErMin= 2 ErrMin= 1.23D-02
 ErrMax= 2.18D-02 EMaxC= 1.00D-01 BMatC= 2.40D-02 BMatP= 1.29D-02
 IDIUse=2 WtCom= 0.00D+00 WtEn= 1.00D+00
 Coeff-En:   0.000D+00 0.000D+00 0.100D+01
 Coeff:      0.000D+00 0.000D+00 0.100D+01
 Gap=     0.159 Goal=   None    Shift=    0.000
 RMSDP=3.94D-03 MaxDP=5.18D-02 DE=-4.91D-02 OVMax= 2.02D-01

 Cycle   4  Pass 1  IDiag  1:
 E= -153.602358387973     Delta-E=        0.127663643531 Rises=F Damp=F
 DIIS: error= 5.96D-02 at cycle   4 NSaved=   4.
 NSaved= 4 IEnMin= 3 EnMin= -153.730022031504     IErMin= 2 ErrMin= 1.23D-02
 ErrMax= 5.96D-02 EMaxC= 1.00D-01 BMatC= 1.90D-01 BMatP= 1.29D-02
 IDIUse=2 WtCom= 0.00D+00 WtEn= 1.00D+00
 Coeff-En:   0.000D+00 0.000D+00 0.822D+00 0.178D+00
 Coeff:      0.000D+00 0.000D+00 0.822D+00 0.178D+00
 Gap=     0.164 Goal=   None    Shift=    0.000
 RMSDP=2.06D-03 MaxDP=2.75D-02 DE= 1.28D-01 OVMax= 1.05D-01

 Cycle   5  Pass 1  IDiag  1:
 E= -153.736257361133     Delta-E=       -0.133898973160 Rises=F Damp=F
 DIIS: error= 1.81D-02 at cycle   5 NSaved=   5.
 NSaved= 5 IEnMin= 5 EnMin= -153.736257361133     IErMin= 2 ErrMin= 1.23D-02
 ErrMax= 1.81D-02 EMaxC= 1.00D-01 BMatC= 1.70D-02 BMatP= 1.29D-02
 IDIUse=2 WtCom= 0.00D+00 WtEn= 1.00D+00
 Coeff-En:   0.000D+00 0.000D+00 0.433D+00 0.000D+00 0.567D+00
 Coeff:      0.000D+00 0.000D+00 0.433D+00 0.000D+00 0.567D+00
 Gap=     0.168 Goal=   None    Shift=    0.000
 RMSDP=9.91D-04 MaxDP=1.29D-02 DE=-1.34D-01 OVMax= 4.49D-02

 Cycle   6  Pass 1  IDiag  1:
 E= -153.749420049295     Delta-E=       -0.013162688162 Rises=F Damp=F
 DIIS: error= 2.38D-03 at cycle   6 NSaved=   6.
 NSaved= 6 IEnMin= 6 EnMin= -153.749420049295     IErMin= 6 ErrMin= 2.38D-03
 ErrMax= 2.38D-03 EMaxC= 1.00D-01 BMatC= 3.44D-04 BMatP= 1.29D-02
 IDIUse=3 WtCom= 9.76D-01 WtEn= 2.38D-02
 Coeff-Com: -0.111D-01 0.189D-01 0.795D-01-0.352D-01 0.281D+00 0.667D+00
 Coeff-En:   0.000D+00 0.000D+00 0.000D+00 0.000D+00 0.000D+00 0.100D+01
 Coeff:     -0.108D-01 0.184D-01 0.776D-01-0.344D-01 0.274D+00 0.675D+00
 Gap=     0.168 Goal=   None    Shift=    0.000
 RMSDP=1.40D-04 MaxDP=2.07D-03 DE=-1.32D-02 OVMax= 5.83D-03

 Cycle   7  Pass 1  IDiag  1:
 E= -153.749667079447     Delta-E=       -0.000247030153 Rises=F Damp=F
 DIIS: error= 2.54D-04 at cycle   7 NSaved=   7.
 NSaved= 7 IEnMin= 7 EnMin= -153.749667079447     IErMin= 7 ErrMin= 2.54D-04
 ErrMax= 2.54D-04 EMaxC= 1.00D-01 BMatC= 3.42D-06 BMatP= 3.44D-04
 IDIUse=3 WtCom= 9.97D-01 WtEn= 2.54D-03
 Coeff-Com: -0.241D-02 0.439D-02 0.155D-01-0.938D-02 0.606D-01 0.189D+00
 Coeff-Com:  0.742D+00
 Coeff-En:   0.000D+00 0.000D+00 0.000D+00 0.000D+00 0.000D+00 0.000D+00
 Coeff-En:   0.100D+01
 Coeff:     -0.241D-02 0.438D-02 0.155D-01-0.936D-02 0.604D-01 0.189D+00
 Coeff:      0.743D+00
 Gap=     0.168 Goal=   None    Shift=    0.000
 RMSDP=1.38D-05 MaxDP=2.20D-04 DE=-2.47D-04 OVMax= 5.16D-04

 Cycle   8  Pass 1  IDiag  1:
 E= -153.749669675546     Delta-E=       -0.000002596099 Rises=F Damp=F
 DIIS: error= 2.83D-05 at cycle   8 NSaved=   8.
 NSaved= 8 IEnMin= 8 EnMin= -153.749669675546     IErMin= 8 ErrMin= 2.83D-05
 ErrMax= 2.83D-05 EMaxC= 1.00D-01 BMatC= 4.88D-08 BMatP= 3.42D-06
 IDIUse=1 WtCom= 1.00D+00 WtEn= 0.00D+00
 Coeff-Com: -0.180D-03 0.249D-04-0.172D-02 0.718D-04-0.186D-02 0.393D-01
 Coeff-Com:  0.319D+00 0.645D+00
 Coeff:     -0.180D-03 0.249D-04-0.172D-02 0.718D-04-0.186D-02 0.393D-01
 Coeff:      0.319D+00 0.645D+00
 Gap=     0.168 Goal=   None    Shift=    0.000
 RMSDP=3.38D-06 MaxDP=6.21D-05 DE=-2.60D-06 OVMax= 7.97D-05

 Cycle   9  Pass 1  IDiag  1:
 E= -153.749669720354     Delta-E=       -0.000000044808 Rises=F Damp=F
 DIIS: error= 4.84D-06 at cycle   9 NSaved=   9.
 NSaved= 9 IEnMin= 9 EnMin= -153.749669720354     IErMin= 9 ErrMin= 4.84D-06
 ErrMax= 4.84D-06 EMaxC= 1.00D-01 BMatC= 1.40D-09 BMatP= 4.88D-08
 IDIUse=1 WtCom= 1.00D+00 WtEn= 0.00D+00
 Coeff-Com:  0.535D-04-0.991D-04-0.749D-03 0.189D-03-0.191D-02 0.698D-03
 Coeff-Com:  0.487D-01 0.157D+00 0.796D+00
 Coeff:      0.535D-04-0.991D-04-0.749D-03 0.189D-03-0.191D-02 0.698D-03
 Coeff:      0.487D-01 0.157D+00 0.796D+00
 Gap=     0.168 Goal=   None    Shift=    0.000
 RMSDP=6.36D-07 MaxDP=1.36D-05 DE=-4.48D-08 OVMax= 1.66D-05

 Cycle  10  Pass 1  IDiag  1:
 E= -153.749669721656     Delta-E=       -0.000000001302 Rises=F Damp=F
 DIIS: error= 1.09D-06 at cycle  10 NSaved=  10.
 NSaved=10 IEnMin=10 EnMin= -153.749669721656     IErMin=10 ErrMin= 1.09D-06
 ErrMax= 1.09D-06 EMaxC= 1.00D-01 BMatC= 6.65D-11 BMatP= 1.40D-09
 IDIUse=1 WtCom= 1.00D+00 WtEn= 0.00D+00
 Coeff-Com:  0.206D-04-0.325D-04-0.179D-03 0.844D-04-0.567D-03-0.202D-02
 Coeff-Com: -0.627D-02-0.344D-02 0.136D+00 0.876D+00
 Coeff:      0.206D-04-0.325D-04-0.179D-03 0.844D-04-0.567D-03-0.202D-02
 Coeff:     -0.627D-02-0.344D-02 0.136D+00 0.876D+00
 Gap=     0.168 Goal=   None    Shift=    0.000
 RMSDP=1.32D-07 MaxDP=2.36D-06 DE=-1.30D-09 OVMax= 4.99D-06

 Cycle  11  Pass 1  IDiag  1:
 E= -153.749669721724     Delta-E=       -0.000000000068 Rises=F Damp=F
 DIIS: error= 7.85D-08 at cycle  11 NSaved=  11.
 NSaved=11 IEnMin=11 EnMin= -153.749669721724     IErMin=11 ErrMin= 7.85D-08
 ErrMax= 7.85D-08 EMaxC= 1.00D-01 BMatC= 7.03D-13 BMatP= 6.65D-11
 IDIUse=1 WtCom= 1.00D+00 WtEn= 0.00D+00
 Coeff-Com: -0.134D-05 0.360D-05 0.225D-04-0.496D-05 0.436D-04-0.154D-03
 Coeff-Com: -0.171D-02-0.550D-02-0.272D-01 0.545D-02 0.103D+01
 Coeff:     -0.134D-05 0.360D-05 0.225D-04-0.496D-05 0.436D-04-0.154D-03
 Coeff:     -0.171D-02-0.550D-02-0.272D-01 0.545D-02 0.103D+01
 Gap=     0.168 Goal=   None    Shift=    0.000
 RMSDP=4.39D-08 MaxDP=9.55D-07 DE=-6.76D-11 OVMax= 9.53D-07

 Cycle  12  Pass 1  IDiag  1:
 E= -153.749669721725     Delta-E=       -0.000000000001 Rises=F Damp=F
 DIIS: error= 2.60D-08 at cycle  12 NSaved=  12.
 NSaved=12 IEnMin=12 EnMin= -153.749669721725     IErMin=12 ErrMin= 2.60D-08
 ErrMax= 2.60D-08 EMaxC= 1.00D-01 BMatC= 3.35D-14 BMatP= 7.03D-13
 IDIUse=1 WtCom= 1.00D+00 WtEn= 0.00D+00
 Coeff-Com: -0.139D-06 0.329D-06 0.445D-05-0.120D-05 0.819D-05 0.501D-05
 Coeff-Com: -0.447D-04-0.159D-03-0.327D-02-0.829D-02 0.756D-01 0.936D+00
 Coeff:     -0.139D-06 0.329D-06 0.445D-05-0.120D-05 0.819D-05 0.501D-05
 Coeff:     -0.447D-04-0.159D-03-0.327D-02-0.829D-02 0.756D-01 0.936D+00
 Gap=     0.168 Goal=   None    Shift=    0.000
 RMSDP=5.63D-09 MaxDP=1.29D-07 DE=-9.09D-13 OVMax= 6.94D-08

 SCF Done:  E(RB3LYP) =  -153.749669722     A.U. after   12 cycles
             Convg  =    0.5634D-08             -V/T =  2.0038
 KE= 1.531666031014D+02 PE=-4.978739582228D+02 EE= 1.218029458517D+02
 Leave Link  502 at Sun Aug 22 15:49:20 2010, MaxMem=  786432000 cpu:      41.5
 (Enter /usr/local/bin/gaussian09-A.02/g09/l801.exe)
 Range of M.O.s used for correlation:     1    94
 NBasis=    94 NAE=    12 NBE=    12 NFC=     0 NFV=     0
 NROrb=     94 NOA=    12 NOB=    12 NVA=    82 NVB=    82

 **** Warning!!: The largest alpha MO coefficient is  0.39808531D+02

 Leave Link  801 at Sun Aug 22 15:49:21 2010, MaxMem=  786432000 cpu:       0.2
 (Enter /usr/local/bin/gaussian09-A.02/g09/l1101.exe)
 Using compressed storage, NAtomX=     7.
 Will process   8 centers per pass.
 Leave Link 1101 at Sun Aug 22 15:49:21 2010, MaxMem=  786432000 cpu:       0.9
 (Enter /usr/local/bin/gaussian09-A.02/g09/l1102.exe)
 Symmetrizing basis deriv contribution to polar:
 IMax=3 JMax=2 DiffMx= 0.00D+00
 Leave Link 1102 at Sun Aug 22 15:49:21 2010, MaxMem=  786432000 cpu:       0.2
 (Enter /usr/local/bin/gaussian09-A.02/g09/l1110.exe)
 Forming Gx(P) for the SCF density, NAtomX=     7.
 Integral derivatives from FoFDir/FoFCou, PRISM(SPDF).
 Do as many integral derivatives as possible in FoFDir.
 G2DrvN: MDV=     786431840.
 G2DrvN: will do     8 centers at a time, making    1 passes doing MaxLOS=2.
 Calling FoFCou, ICntrl=  3107 FMM=F I1Cent=   0 AccDes= 0.00D+00.
 FoFCou: FMM=F IPFlag=           0 FMFlag=      100000 FMFlg1=           0
         NFxFlg=           0 DoJE=F BraDBF=F KetDBF=F FulRan=T
         Omega=  0.000000  0.000000  1.000000  0.000000  0.000000 ICntrl=    3107 IOpCl=  0
         NMat0=    1 NMatS0=    1 NMatT0=    0 NMatD0=    1 NMtDS0=    0 NMtDT0=    0
         I1Cent=           0 NGrid=           0.
 Symmetry not used in FoFCou.
 FoFDir/FoFCou used for L=0 through L=2.
 End of G2Drv Frequency-dependent properties file   721 does not exist.
 End of G2Drv Frequency-dependent properties file   722 does not exist.
 Leave Link 1110 at Sun Aug 22 15:49:44 2010, MaxMem=  786432000 cpu:      90.8
 (Enter /usr/local/bin/gaussian09-A.02/g09/l1002.exe)
 Minotr:  Closed shell wavefunction.
          IDoAtm=1111111
          Direct CPHF calculation.
          Differentiating once with respect to nuclear coordinates.
          Requested convergence is 1.0D-06 RMS, and 1.0D-05 maximum.
          Secondary convergence is 1.0D-12 RMS, and 1.0D-12 maximum.
          NewPWx=T KeepS1=F KeepF1=F KeepIn=T MapXYZ=F SortEE=F KeepMc=T.
          MDV=     786431926 using IRadAn=       1.
 Generate precomputed XC quadrature information.
          Keep R1 ints in memory in canonical form, NReq=12120910.
 Symmetry not used in FoFDir.
 MinBra= 0 MaxBra= 2 Meth= 1.
 IRaf=       0 NMat=   1 IRICut=       1 DoRegI=T DoRafI=F ISym2E= 0 JSym2E=0.
          Solving linear equations simultaneously, MaxMat=       0.
          There are    24 degrees of freedom in the 1st order CPHF.  IDoFFX=5.
     18 vectors produced by pass  0 Test12= 4.10D-11 4.17D-07 XBig12= 1.86D-01 2.37D-01.
 AX will form    18 AO Fock derivatives at one time.
     18 vectors produced by pass  1 Test12= 4.10D-11 4.17D-07 XBig12= 3.80D-02 8.72D-02.
     18 vectors produced by pass  2 Test12= 4.10D-11 4.17D-07 XBig12= 1.01D-04 2.50D-03.
     18 vectors produced by pass  3 Test12= 4.10D-11 4.17D-07 XBig12= 4.73D-07 1.49D-04.
     12 vectors produced by pass  4 Test12= 4.10D-11 4.17D-07 XBig12= 1.10D-09 6.51D-06.
 Inverted reduced A of dimension    84 with in-core refinement.
 End of Minotr Frequency-dependent properties file   721 does not exist.
 End of Minotr Frequency-dependent properties file   722 does not exist.
 Leave Link 1002 at Sun Aug 22 15:49:56 2010, MaxMem=  786432000 cpu:      48.4
 (Enter /usr/local/bin/gaussian09-A.02/g09/l601.exe)
 Copying SCF densities to generalized density rwf, IOpCl= 0 IROHF=0.

 **********************************************************************

            Population analysis using the SCF density.

 **********************************************************************

 Alpha  occ. eigenvalues --  -19.17287 -10.26371 -10.18607  -1.09610  -0.76192
 Alpha  occ. eigenvalues --   -0.56529  -0.52728  -0.45484  -0.45340  -0.39552
 Alpha  occ. eigenvalues --   -0.38686  -0.22734
 Alpha virt. eigenvalues --   -0.05919  -0.00610   0.00277   0.02892   0.03172
 Alpha virt. eigenvalues --    0.06434   0.06572   0.07906   0.08644   0.09419
 Alpha virt. eigenvalues --    0.09771   0.12087   0.13929   0.17047   0.17303
 Alpha virt. eigenvalues --    0.19027   0.21259   0.23078   0.23787   0.26767
 Alpha virt. eigenvalues --    0.29194   0.31860   0.35723   0.42609   0.44540
 Alpha virt. eigenvalues --    0.47316   0.53815   0.60773   0.62069   0.62721
 Alpha virt. eigenvalues --    0.63259   0.65842   0.69693   0.81028   0.88732
 Alpha virt. eigenvalues --    0.92555   0.96812   1.02577   1.06085   1.12719
 Alpha virt. eigenvalues --    1.25716   1.34475   1.41447   1.42175   1.52233
 Alpha virt. eigenvalues --    1.53354   1.54417   1.56489   1.59579   1.66539
 Alpha virt. eigenvalues --    1.76399   1.84092   1.91140   1.97483   2.03017
 Alpha virt. eigenvalues --    2.24877   2.27472   2.40516   2.49422   2.50857
 Alpha virt. eigenvalues --    2.53669   2.55423   2.57643   2.69795   2.73141
 Alpha virt. eigenvalues --    2.81485   2.88772   2.94583   3.10811   3.20255
 Alpha virt. eigenvalues --    3.25125   3.58689   3.63329   3.76152   3.84229
 Alpha virt. eigenvalues --    4.16244   4.94833   5.12092   5.54563  23.73013
 Alpha virt. eigenvalues --   23.94621  49.83299
          Condensed to atoms (all electrons):
              1          2          3          4          5          6
     1  C    6.111859  -0.159500   0.198676   0.089687  -0.008108  -0.050460
     2  O   -0.159500   8.229633  -0.138640   0.172785   0.007820  -0.000106
     3  C    0.198676  -0.138640   5.295955   0.019186   0.366892   0.415820
     4  H    0.089687   0.172785   0.019186   0.370549  -0.002213  -0.002451
     5  H   -0.008108   0.007820   0.366892  -0.002213   0.565536  -0.030220
     6  H   -0.050460  -0.000106   0.415820  -0.002451  -0.030220   0.537744
     7  H   -0.050460  -0.000106   0.415820  -0.002451  -0.030220  -0.036259
              7
     1  C   -0.050460
     2  O   -0.000106
     3  C    0.415820
     4  H   -0.002451
     5  H   -0.030220
     6  H   -0.036259
     7  H    0.537744
 Mulliken atomic charges:
              1
     1  C   -0.131694
     2  O   -0.111885
     3  C   -0.573708
     4  H    0.354908
     5  H    0.130514
     6  H    0.165932
     7  H    0.165932
 Sum of Mulliken atomic charges =   0.00000
 Mulliken charges with hydrogens summed into heavy atoms:
              1
     1  C   -0.131694
     2  O    0.243024
     3  C   -0.111330
 Sum of Mulliken charges with hydrogens summed into heavy atoms =   0.00000
 APT atomic charges:
              1
     1  C   -0.296781
     2  O   -0.159248
     3  C   -1.048501
     4  H    0.440546
     5  H    0.259660
     6  H    0.402162
     7  H    0.402162
 Sum of APT charges=   0.00000
 APT Atomic charges with hydrogens summed into heavy atoms:
              1
     1  C   -0.296781
     2  O    0.281298
     3  C    0.015483
     4  H    0.000000
     5  H    0.000000
     6  H    0.000000
     7  H    0.000000
 Sum of APT charges=   0.00000
 Electronic spatial extent (au):  <R**2>=            169.8019
 Charge=              0.0000 electrons
 Dipole moment (field-independent basis, Debye):
    X=              1.3447    Y=             -0.1512    Z=              0.0000  Tot=              1.3531
 Quadrupole moment (field-independent basis, Debye-Ang):
   XX=            -19.3768   YY=            -20.1294   ZZ=            -18.7740
   XY=             -2.6734   XZ=              0.0000   YZ=              0.0000
 Traceless Quadrupole moment (field-independent basis, Debye-Ang):
   XX=              0.0499   YY=             -0.7026   ZZ=              0.6527
   XY=             -2.6734   XZ=              0.0000   YZ=              0.0000
 Octapole moment (field-independent basis, Debye-Ang**2):
  XXX=              0.0263  YYY=             -4.0348  ZZZ=              0.0000  XYY=             -4.9609
  XXY=              2.1797  XXZ=              0.0000  XZZ=             -0.0898  YZZ=             -0.6029
  YYZ=              0.0000  XYZ=              0.0000
 Hexadecapole moment (field-independent basis, Debye-Ang**3):
 XXXX=           -143.0022 YYYY=            -63.4326 ZZZZ=            -26.6722 XXXY=             13.7221
 XXXZ=              0.0000 YYYX=             11.5162 YYYZ=              0.0000 ZZZX=              0.0000
 ZZZY=              0.0000 XXYY=            -32.0035 XXZZ=            -25.6549 YYZZ=            -15.7865
 XXYZ=              0.0000 YYXZ=              0.0000 ZZXY=              5.2575
 N-N= 6.915473954791D+01 E-N=-4.978739581545D+02  KE= 1.531666031014D+02
  Exact polarizability:   0.000   0.000   0.000   0.000   0.000   0.000
 Approx polarizability:  61.082   1.607  41.992   0.000   0.000  34.403
 No NMR shielding tensors so no spin-rotation constants.
 Leave Link  601 at Sun Aug 22 15:49:56 2010, MaxMem=  786432000 cpu:       0.8
 (Enter /usr/local/bin/gaussian09-A.02/g09/l701.exe)
 Compute integral second derivatives.
 ... and contract with generalized density number  0.
 Leave Link  701 at Sun Aug 22 15:49:56 2010, MaxMem=  786432000 cpu:       1.2
 (Enter /usr/local/bin/gaussian09-A.02/g09/l702.exe)
 L702 exits ... SP integral derivatives will be done elsewhere.
 Leave Link  702 at Sun Aug 22 15:49:57 2010, MaxMem=  786432000 cpu:       0.2
 (Enter /usr/local/bin/gaussian09-A.02/g09/l703.exe)
 Compute integral second derivatives, UseDBF=F ICtDFT=           0.
 Integral derivatives from FoFDir, PRISM(SPDF).
 Calling FoFJK, ICntrl=    100147 FMM=F ISym2X=0 I1Cent= 0 IOpClX= 0 NMat=1 NMatS=1 NMatT=0.
 FoFCou: FMM=F IPFlag=           0 FMFlag=      100000 FMFlg1=         800
         NFxFlg=           0 DoJE=F BraDBF=F KetDBF=F FulRan=T
         Omega=  0.000000  0.000000  1.000000  0.000000  0.000000 ICntrl=  100147 IOpCl=  0
         NMat0=    1 NMatS0=    1 NMatT0=    0 NMatD0=    1 NMtDS0=    0 NMtDT0=    0
         I1Cent=           0 NGrid=           0.
 Symmetry not used in FoFCou.
 Leave Link  703 at Sun Aug 22 15:50:26 2010, MaxMem=  786432000 cpu:     118.9
 (Enter /usr/local/bin/gaussian09-A.02/g09/l716.exe)
 Dipole        = 5.29036981D-01-5.94722412D-02 5.83167949D-14
 Polarizability= 0.00000000D+00 0.00000000D+00 0.00000000D+00
                 0.00000000D+00 0.00000000D+00 0.00000000D+00
 -------------------------------------------------------------------
 Center     Atomic                   Forces (Hartrees/Bohr)
 Number     Number              X              Y              Z
 -------------------------------------------------------------------
      1        6           0.000000371    0.000000104    0.000000000
      2        8          -0.000000378    0.000000027    0.000000000
      3        6           0.000000171   -0.000000275    0.000000000
      4        1          -0.000000026    0.000000037    0.000000000
      5        1          -0.000000136    0.000000073    0.000000000
      6        1          -0.000000001    0.000000018    0.000000107
      7        1          -0.000000001    0.000000018   -0.000000107
 -------------------------------------------------------------------
 Cartesian Forces:  Max     0.000000378 RMS     0.000000146
 Force constants in Cartesian coordinates: 
                1             2             3             4             5 
      1  0.442318D+00
      2  0.237982D-01  0.376008D+00
      3  0.000000D+00  0.000000D+00  0.615075D-01
      4 -0.388644D+00 -0.139777D+00  0.000000D+00  0.461762D+00
      5 -0.342300D+00 -0.102555D+00  0.000000D+00  0.157846D+00  0.973526D-01
      6  0.000000D+00  0.000000D+00 -0.201819D-02  0.000000D+00  0.000000D+00
      7 -0.945550D-01  0.423386D-01  0.000000D+00 -0.583146D-01  0.501321D-01
      8  0.107270D+00 -0.170854D+00  0.000000D+00 -0.983904D-02  0.469159D-01
      9  0.000000D+00  0.000000D+00 -0.488358D-01  0.000000D+00  0.000000D+00
     10  0.711019D-01  0.581354D-01  0.000000D+00 -0.153782D-01  0.134742D+00
     11  0.198115D+00 -0.792370D-01  0.000000D+00 -0.161175D-01 -0.513609D-01
     12  0.000000D+00  0.000000D+00 -0.166134D-01  0.000000D+00  0.000000D+00
     13  0.432450D-03  0.294289D-01  0.000000D+00  0.604015D-02 -0.124272D-01
     14  0.477868D-02 -0.349378D-01  0.000000D+00 -0.207910D-03  0.162505D-01
     15  0.000000D+00  0.000000D+00  0.420492D-02  0.000000D+00  0.000000D+00
     16 -0.153266D-01 -0.696193D-02 -0.159631D-01 -0.273289D-02  0.600336D-02
     17  0.416911D-02  0.578783D-02  0.158702D-01  0.404766D-02 -0.330163D-02
     18  0.145954D-02 -0.689251D-04  0.877484D-03  0.910781D-03  0.580921D-03
     19 -0.153266D-01 -0.696193D-02  0.159631D-01 -0.273289D-02  0.600336D-02
     20  0.416911D-02  0.578783D-02 -0.158702D-01  0.404766D-02 -0.330163D-02
     21 -0.145954D-02  0.689251D-04  0.877484D-03 -0.910781D-03 -0.580921D-03
                6             7             8             9            10 
      6  0.278841D-02
      7  0.000000D+00  0.507798D+00
      8  0.000000D+00  0.561767D-01  0.511181D+00
      9  0.938658D-02  0.000000D+00  0.000000D+00  0.493932D+00
     10  0.000000D+00 -0.207222D-01 -0.186797D-01  0.000000D+00 -0.371536D-01
     11  0.000000D+00 -0.170094D-01 -0.152126D-01  0.000000D+00 -0.169330D+00
     12 -0.275952D-02  0.000000D+00  0.000000D+00  0.771732D-02  0.000000D+00
     13  0.000000D+00 -0.820721D-01 -0.848421D-01  0.000000D+00  0.543578D-02
     14  0.000000D+00 -0.886878D-01 -0.264927D+00  0.000000D+00 -0.854583D-02
     15 -0.385042D-02  0.000000D+00  0.000000D+00 -0.487214D-01  0.000000D+00
     16  0.540909D-03 -0.126067D+00 -0.250427D-01 -0.129770D+00 -0.164179D-02
     17 -0.106010D-02 -0.214751D-01 -0.535518D-01 -0.299722D-01  0.183914D-02
     18 -0.177343D-02 -0.124706D+00 -0.334813D-01 -0.206739D+00  0.366697D-04
     19 -0.540909D-03 -0.126067D+00 -0.250427D-01  0.129770D+00 -0.164179D-02
     20  0.106010D-02 -0.214751D-01 -0.535518D-01  0.299722D-01  0.183914D-02
     21 -0.177343D-02  0.124706D+00  0.334813D-01 -0.206739D+00 -0.366697D-04
               11            12            13            14            15 
     11  0.146465D+00
     12  0.000000D+00  0.103286D-01
     13  0.624230D-02  0.000000D+00  0.819349D-01
     14 -0.431720D-02  0.000000D+00  0.930992D-01  0.291406D+00
     15  0.000000D+00  0.966384D-03  0.000000D+00  0.000000D+00  0.441493D-01
     16 -0.950394D-03  0.134161D-02 -0.588558D-02 -0.218146D-03 -0.735168D-02
     17  0.183146D-02 -0.803084D-03 -0.157506D-01 -0.173738D-02 -0.233679D-01
     18 -0.413849D-03  0.180329D-03  0.246534D-02  0.385023D-03  0.162561D-02
     19 -0.950394D-03 -0.134161D-02 -0.588558D-02 -0.218146D-03  0.735168D-02
     20  0.183146D-02  0.803084D-03 -0.157506D-01 -0.173738D-02  0.233679D-01
     21  0.413849D-03  0.180329D-03 -0.246534D-02 -0.385023D-03  0.162561D-02
               16            17            18            19            20 
     16  0.139804D+00
     17  0.253627D-01  0.509549D-01
     18  0.135518D+00  0.361656D-01  0.227730D+00
     19  0.118496D-01  0.180710D-02 -0.156841D-01  0.139804D+00
     20  0.180710D-02  0.166348D-04 -0.316746D-02  0.253627D-01  0.509549D-01
     21  0.156841D-01  0.316746D-02 -0.219009D-01 -0.135518D+00 -0.361656D-01
               21 
     21  0.227730D+00
 Force constants in internal coordinates: 
                1             2             3             4             5 
      1  0.490087D+00
      2  0.413423D-01  0.274222D+00
      3 -0.398502D-01  0.885519D-03  0.472350D-01
      4  0.341872D-01 -0.425572D-02  0.151781D+00 -0.106601D-01
      5  0.219149D-02  0.923095D-02 -0.707759D-02  0.709961D-02  0.326801D+00
      6 -0.123802D-04  0.563281D-02  0.107653D-02 -0.205885D-02  0.148535D-02
      7 -0.123802D-04  0.563281D-02  0.107653D-02 -0.205885D-02  0.148535D-02
      8  0.847297D-01  0.253658D-01  0.635183D-02 -0.387605D-01 -0.789587D-02
      9 -0.107392D-02  0.139859D-01  0.761355D-01 -0.813157D-01 -0.370300D-02
     10 -0.124875D-01  0.115291D-01 -0.151593D-01  0.246554D-01  0.401997D-02
     11  0.841789D-02  0.119447D-01  0.651704D-02 -0.105244D-01 -0.606471D-02
     12  0.841789D-02  0.119447D-01  0.651704D-02 -0.105244D-01 -0.606471D-02
     13  0.433362D-04 -0.100917D-01  0.279151D-02 -0.440647D-02  0.441214D-02
     14  0.433362D-04 -0.100917D-01  0.279151D-02 -0.440647D-02  0.441214D-02
     15 -0.368722D-02 -0.157523D-01 -0.267431D-02  0.391429D-02 -0.127731D-02
     16  0.000000D+00  0.000000D+00  0.000000D+00  0.000000D+00  0.000000D+00
     17  0.238682D-02 -0.286696D-02  0.195503D-02 -0.339763D-02 -0.405803D-02
     18 -0.238682D-02  0.286696D-02 -0.195503D-02  0.339763D-02  0.405803D-02
     19  0.000000D+00  0.000000D+00  0.000000D+00  0.000000D+00  0.000000D+00
     20  0.238682D-02 -0.286696D-02  0.195503D-02 -0.339763D-02 -0.405803D-02
     21 -0.238682D-02  0.286696D-02 -0.195503D-02  0.339763D-02  0.405803D-02
                6             7             8             9            10 
      6  0.333142D+00
      7  0.299544D-02  0.333142D+00
      8  0.361074D-02  0.361074D-02  0.116836D+00
      9  0.244842D-02  0.244842D-02  0.787209D-01  0.263035D-01
     10 -0.634694D-02 -0.634694D-02 -0.264616D-01 -0.927150D-02  0.956282D-01
     11  0.701061D-02 -0.721811D-02  0.140013D-01  0.596468D-02 -0.190079D-01
     12 -0.721811D-02  0.701061D-02  0.140013D-01  0.596468D-02 -0.190079D-01
     13  0.343216D-02 -0.107732D-02  0.380170D-02  0.120214D-02 -0.351903D-01
     14 -0.107732D-02  0.343216D-02  0.380170D-02  0.120214D-02 -0.351903D-01
     15  0.465725D-02  0.465725D-02 -0.778260D-02 -0.461978D-02  0.869954D-02
     16  0.414163D-02 -0.414163D-02  0.000000D+00  0.000000D+00  0.000000D+00
     17 -0.754740D-03  0.617887D-02  0.298929D-02  0.498104D-03 -0.516742D-02
     18 -0.617887D-02  0.754740D-03 -0.298929D-02 -0.498104D-03  0.516742D-02
     19  0.516349D-02 -0.516349D-02  0.000000D+00  0.000000D+00  0.000000D+00
     20  0.267127D-03  0.515700D-02  0.298929D-02  0.498104D-03 -0.516742D-02
     21 -0.515700D-02 -0.267127D-03 -0.298929D-02 -0.498104D-03  0.516742D-02
               11            12            13            14            15 
     11  0.895314D-01
     12 -0.592930D-02  0.895314D-01
     13 -0.351642D-01  0.657996D-02  0.518046D-01
     14  0.657996D-02 -0.351642D-01  0.687458D-02  0.518046D-01
     15 -0.346624D-01 -0.346624D-01  0.580976D-02  0.580976D-02  0.491837D-01
     16  0.668050D-02 -0.668050D-02  0.994076D-02 -0.994076D-02  0.000000D+00
     17  0.286961D-02  0.139338D-02 -0.849158D-02 -0.148837D-03  0.103835D-01
     18 -0.139338D-02 -0.286961D-02  0.148837D-03  0.849158D-02 -0.103835D-01
     19  0.422489D-02 -0.422489D-02  0.929900D-02 -0.929900D-02  0.000000D+00
     20  0.413999D-03  0.384899D-02 -0.913334D-02  0.492924D-03  0.103835D-01
     21 -0.384899D-02 -0.413999D-03 -0.492924D-03  0.913334D-02 -0.103835D-01
               16            17            18            19            20 
     16  0.144471D-01
     17 -0.249928D-02  0.956251D-02
     18 -0.249928D-02 -0.510116D-02  0.956251D-02
     19  0.110926D-01 -0.339866D-02 -0.339866D-02  0.982463D-02
     20 -0.585380D-02  0.866313D-02 -0.600054D-02 -0.466663D-02  0.985029D-02
     21 -0.585380D-02 -0.600054D-02  0.866313D-02 -0.466663D-02 -0.481337D-02
               21 
     21  0.985029D-02
 Leave Link  716 at Sun Aug 22 15:50:26 2010, MaxMem=  786432000 cpu:       0.2
 (Enter /usr/local/bin/gaussian09-A.02/g09/l123.exe)
 IRC-IRC-IRC-IRC-IRC-IRC-IRC-IRC-IRC-IRC-IRC-IRC-IRC-IRC-IRC-IRC-IRC-IRC
          ******** Start new reaction path calculation ********
 Current Structure is TS -> diagonalize the Hessian.
 Supplied step size of   0.1000 bohr.
    Integration on MW PES will use step size of   0.1053 sqrt(amu)*bohr.
 Point Number:   0          Path Number:   1
 Calculating another point on the path.
 Point Number  1 in REVERSE path direction.
 Using LQA Reaction Path Following.
 IRC-IRC-IRC-IRC-IRC-IRC-IRC-IRC-IRC-IRC-IRC-IRC-IRC-IRC-IRC-IRC-IRC-IRC
 Leave Link  123 at Sun Aug 22 15:50:26 2010, MaxMem=  786432000 cpu:       0.0
 (Enter /usr/local/bin/gaussian09-A.02/g09/l202.exe)
                          Input orientation:                          
 ---------------------------------------------------------------------
 Center     Atomic      Atomic             Coordinates (Angstroms)
 Number     Number       Type             X           Y           Z
 ---------------------------------------------------------------------
      1          6           0        0.066571    0.504733    0.000000
      2          8           0       -1.152137    0.042657    0.000000
      3          6           0        1.177751   -0.485689    0.000000
      4          1           0       -0.938795    1.231607    0.000000
      5          1           0        0.786048   -1.509945    0.000000
      6          1           0        1.811028   -0.312698    0.876641
      7          1           0        1.811028   -0.312698   -0.876641
 ---------------------------------------------------------------------
                    Distance matrix (angstroms):
                    1          2          3          4          5
     1  C    0.000000
     2  O    1.303366   0.000000
     3  C    1.488508   2.389043   0.000000
     4  H    1.240608   1.207939   2.725596   0.000000
     5  H    2.139292   2.483371   1.096600   3.239010   0.000000
     6  H    2.116559   3.110486   1.095201   3.273362   1.803465
     7  H    2.116559   3.110486   1.095201   3.273362   1.803465
                    6          7
     6  H    0.000000
     7  H    1.753282   0.000000
 Symmetry turned off by external request.
 Stoichiometry    C2H4O
 Framework group  CS[SG(C2H2O),X(H2)]
 Deg. of freedom    10
 Full point group                 CS      NOp   2
 Rotational constants (GHZ):     59.2360101      9.9957971      9.0257993
 Leave Link  202 at Sun Aug 22 15:50:26 2010, MaxMem=  786432000 cpu:       0.0
 (Enter /usr/local/bin/gaussian09-A.02/g09/l301.exe)
 Standard basis: 6-311++G(d,p) (5D, 7F)
 Ernie: Thresh=  0.10000D-02 Tol=  0.10000D-05 Strict=F.
 Integral buffers will be    131072 words long.
 Raffenetti 2 integral format.
 Two-electron integral symmetry is turned off.
    94 basis functions,   144 primitive gaussians,    97 cartesian basis functions
    12 alpha electrons       12 beta electrons
       nuclear repulsion energy        69.1276071105 Hartrees.
 IExCor=  402 DFT=T Ex+Corr=B3LYP ExCW=0 ScaHFX=  0.200000
 ScaDFX=  0.800000  0.720000  1.000000  0.810000 ScalE2=  1.000000  1.000000
 IRadAn=      5 IRanWt=     -1 IRanGd=            0 ICorTp=0
 NAtoms=    7 NActive=    7 NUniq=    7 SFac= 7.50D-01 NAtFMM=   80 NAOKFM=F Big=F
 Leave Link  301 at Sun Aug 22 15:50:26 2010, MaxMem=  786432000 cpu:       0.3
 (Enter /usr/local/bin/gaussian09-A.02/g09/l302.exe)
 NPDir=0 NMtPBC=     1 NCelOv=     1 NCel=       1 NClECP=     1 NCelD=      1
         NCelK=      1 NCelE2=     1 NClLst=     1 CellRange=     0.0.
 One-electron integrals computed using PRISM.
 NBasis=    94 RedAO= T  NBF=    94
 NBsUse=    94 1.00D-06 NBFU=    94
 Precomputing XC quadrature grid using
 IXCGrd= 2 IRadAn=           5 IRanWt=          -1 IRanGd=           0 AccXCQ= 1.00D-10.
 NRdTot=     594 NPtTot=      159582 NUsed=      163844 NTot=      163876
 NSgBfM=    97    97    97    97    97 NAtAll=     7     7.
 Leave Link  302 at Sun Aug 22 15:50:27 2010, MaxMem=  786432000 cpu:       1.1
 (Enter /usr/local/bin/gaussian09-A.02/g09/l303.exe)
 DipDrv:  MaxL=1.
 Leave Link  303 at Sun Aug 22 15:50:27 2010, MaxMem=  786432000 cpu:       0.2
 (Enter /usr/local/bin/gaussian09-A.02/g09/l401.exe)
 Initial guess read from the read-write file.
 B after Tr=     0.000000    0.000000    0.000000
         Rot=    1.000000    0.000000    0.000000    0.000000 Ang=   0.00 deg.
 Guess basis will be translated and rotated to current coordinates.
 Generating alternative initial guess.
 Harris functional with IExCor=  402 diagonalized for initial guess.
 ExpMin= 3.60D-02 ExpMax= 8.59D+03 ExpMxC= 1.30D+03 IAcc=3 IRadAn=         5 AccDes= 0.00D+00
 HarFok:  IExCor=  402 AccDes= 0.00D+00 IRadAn=         5 IDoV= 1
 ScaDFX=  1.000000  1.000000  1.000000  1.000000
 FoFCou: FMM=F IPFlag=           0 FMFlag=      100000 FMFlg1=           0
         NFxFlg=           0 DoJE=T BraDBF=F KetDBF=T FulRan=T
         Omega=  0.000000  0.000000  1.000000  0.000000  0.000000 ICntrl=     500 IOpCl=  0
         NMat0=    1 NMatS0=    1 NMatT0=    0 NMatD0=    1 NMtDS0=    0 NMtDT0=    0
         I1Cent=           4 NGrid=           0.
 Symmetry not used in FoFCou.
 Harris En= -153.784941684929    
 Leave Link  401 at Sun Aug 22 15:50:28 2010, MaxMem=  786432000 cpu:       3.7
 (Enter /usr/local/bin/gaussian09-A.02/g09/l502.exe)
 Closed shell SCF:
 Requested convergence on RMS density matrix=1.00D-08 within 128 cycles.
 Requested convergence on MAX density matrix=1.00D-06.
 Requested convergence on             energy=1.00D-06.
 No special actions if energy rises.
 Using DIIS extrapolation, IDIIS=  1040.
 Two-electron integral symmetry not used.
       163768 words used for storage of precomputed grid.
 Keep R1 ints in memory in canonical form, NReq=12429260.
 IEnd=      211319 IEndB=      211319 NGot=   786432000 MDV=   774948919
 LenX=   774948919 LenY=   774939069
 Symmetry not used in FoFDir.
 MinBra= 0 MaxBra= 2 Meth= 1.
 IRaf=       0 NMat=   1 IRICut=       1 DoRegI=T DoRafI=F ISym2E= 0 JSym2E=0.

 Cycle   1  Pass 1  IDiag  1:
 E= -153.749190228564    
 DIIS: error= 2.60D-03 at cycle   1 NSaved=   1.
 NSaved= 1 IEnMin= 1 EnMin= -153.749190228564     IErMin= 1 ErrMin= 2.60D-03
 ErrMax= 2.60D-03 EMaxC= 1.00D-01 BMatC= 7.88D-04 BMatP= 7.88D-04
 IDIUse=3 WtCom= 9.74D-01 WtEn= 2.60D-02
 Coeff-Com:  0.100D+01
 Coeff-En:   0.100D+01
 Coeff:      0.100D+01
 Gap=     0.170 Goal=   None    Shift=    0.000
 GapD=    0.170 DampG=1.000 DampE=1.000 DampFc=1.0000 IDamp=-1.
 RMSDP=6.39D-04 MaxDP=1.08D-02              OVMax= 2.35D-02

 Cycle   2  Pass 1  IDiag  1:
 E= -153.750319759247     Delta-E=       -0.001129530683 Rises=F Damp=F
 DIIS: error= 2.09D-03 at cycle   2 NSaved=   2.
 NSaved= 2 IEnMin= 2 EnMin= -153.750319759247     IErMin= 2 ErrMin= 2.09D-03
 ErrMax= 2.09D-03 EMaxC= 1.00D-01 BMatC= 2.85D-04 BMatP= 7.88D-04
 IDIUse=3 WtCom= 9.79D-01 WtEn= 2.09D-02
 Coeff-Com:  0.302D+00 0.698D+00
 Coeff-En:   0.000D+00 0.100D+01
 Coeff:      0.296D+00 0.704D+00
 Gap=     0.171 Goal=   None    Shift=    0.000
 RMSDP=3.04D-04 MaxDP=4.24D-03 DE=-1.13D-03 OVMax= 1.29D-02

 Cycle   3  Pass 1  IDiag  1:
 E= -153.750077459792     Delta-E=        0.000242299455 Rises=F Damp=F
 DIIS: error= 3.55D-03 at cycle   3 NSaved=   3.
 NSaved= 3 IEnMin= 2 EnMin= -153.750319759247     IErMin= 2 ErrMin= 2.09D-03
 ErrMax= 3.55D-03 EMaxC= 1.00D-01 BMatC= 6.24D-04 BMatP= 2.85D-04
 IDIUse=3 WtCom= 1.44D-01 WtEn= 8.56D-01
 Coeff-Com: -0.432D-01 0.616D+00 0.427D+00
 Coeff-En:   0.000D+00 0.636D+00 0.364D+00
 Coeff:     -0.620D-02 0.633D+00 0.373D+00
 Gap=     0.170 Goal=   None    Shift=    0.000
 RMSDP=1.44D-04 MaxDP=2.27D-03 DE= 2.42D-04 OVMax= 7.93D-03

 Cycle   4  Pass 1  IDiag  1:
 E= -153.750539823329     Delta-E=       -0.000462363537 Rises=F Damp=F
 DIIS: error= 3.13D-04 at cycle   4 NSaved=   4.
 NSaved= 4 IEnMin= 4 EnMin= -153.750539823329     IErMin= 4 ErrMin= 3.13D-04
 ErrMax= 3.13D-04 EMaxC= 1.00D-01 BMatC= 5.96D-06 BMatP= 2.85D-04
 IDIUse=3 WtCom= 9.97D-01 WtEn= 3.13D-03
 Coeff-Com: -0.191D-01 0.180D+00 0.601D-01 0.779D+00
 Coeff-En:   0.000D+00 0.000D+00 0.000D+00 0.100D+01
 Coeff:     -0.190D-01 0.179D+00 0.599D-01 0.780D+00
 Gap=     0.170 Goal=   None    Shift=    0.000
 RMSDP=3.35D-05 MaxDP=5.82D-04 DE=-4.62D-04 OVMax= 8.88D-04

 Cycle   5  Pass 1  IDiag  1:
 E= -153.750544316506     Delta-E=       -0.000004493178 Rises=F Damp=F
 DIIS: error= 7.99D-05 at cycle   5 NSaved=   5.
 NSaved= 5 IEnMin= 5 EnMin= -153.750544316506     IErMin= 5 ErrMin= 7.99D-05
 ErrMax= 7.99D-05 EMaxC= 1.00D-01 BMatC= 5.98D-07 BMatP= 5.96D-06
 IDIUse=1 WtCom= 1.00D+00 WtEn= 0.00D+00
 Coeff-Com: -0.315D-02-0.315D-02-0.342D-01 0.381D+00 0.659D+00
 Coeff:     -0.315D-02-0.315D-02-0.342D-01 0.381D+00 0.659D+00
 Gap=     0.170 Goal=   None    Shift=    0.000
 RMSDP=1.01D-05 MaxDP=1.91D-04 DE=-4.49D-06 OVMax= 2.83D-04

 Cycle   6  Pass 1  IDiag  1:
 E= -153.750544924924     Delta-E=       -0.000000608417 Rises=F Damp=F
 DIIS: error= 2.35D-05 at cycle   6 NSaved=   6.
 NSaved= 6 IEnMin= 6 EnMin= -153.750544924924     IErMin= 6 ErrMin= 2.35D-05
 ErrMax= 2.35D-05 EMaxC= 1.00D-01 BMatC= 3.53D-08 BMatP= 5.98D-07
 IDIUse=1 WtCom= 1.00D+00 WtEn= 0.00D+00
 Coeff-Com:  0.833D-03-0.185D-01-0.215D-01 0.438D-01 0.153D+00 0.842D+00
 Coeff:      0.833D-03-0.185D-01-0.215D-01 0.438D-01 0.153D+00 0.842D+00
 Gap=     0.170 Goal=   None    Shift=    0.000
 RMSDP=4.35D-06 MaxDP=9.60D-05 DE=-6.08D-07 OVMax= 1.04D-04

 Cycle   7  Pass 1  IDiag  1:
 E= -153.750544963204     Delta-E=       -0.000000038281 Rises=F Damp=F
 DIIS: error= 3.40D-06 at cycle   7 NSaved=   7.
 NSaved= 7 IEnMin= 7 EnMin= -153.750544963204     IErMin= 7 ErrMin= 3.40D-06
 ErrMax= 3.40D-06 EMaxC= 1.00D-01 BMatC= 9.91D-10 BMatP= 3.53D-08
 IDIUse=1 WtCom= 1.00D+00 WtEn= 0.00D+00
 Coeff-Com:  0.398D-03-0.522D-02-0.558D-02 0.360D-03 0.197D-01 0.254D+00
 Coeff-Com:  0.736D+00
 Coeff:      0.398D-03-0.522D-02-0.558D-02 0.360D-03 0.197D-01 0.254D+00
 Coeff:      0.736D+00
 Gap=     0.170 Goal=   None    Shift=    0.000
 RMSDP=5.90D-07 MaxDP=9.73D-06 DE=-3.83D-08 OVMax= 1.68D-05

 Cycle   8  Pass 1  IDiag  1:
 E= -153.750544964079     Delta-E=       -0.000000000874 Rises=F Damp=F
 DIIS: error= 1.07D-06 at cycle   8 NSaved=   8.
 NSaved= 8 IEnMin= 8 EnMin= -153.750544964079     IErMin= 8 ErrMin= 1.07D-06
 ErrMax= 1.07D-06 EMaxC= 1.00D-01 BMatC= 9.76D-11 BMatP= 9.91D-10
 IDIUse=1 WtCom= 1.00D+00 WtEn= 0.00D+00
 Coeff-Com:  0.138D-03-0.157D-02-0.166D-02-0.120D-02 0.312D-02 0.763D-01
 Coeff-Com:  0.326D+00 0.599D+00
 Coeff:      0.138D-03-0.157D-02-0.166D-02-0.120D-02 0.312D-02 0.763D-01
 Coeff:      0.326D+00 0.599D+00
 Gap=     0.170 Goal=   None    Shift=    0.000
 RMSDP=2.40D-07 MaxDP=5.40D-06 DE=-8.74D-10 OVMax= 3.82D-06

 Cycle   9  Pass 1  IDiag  1:
 E= -153.750544964176     Delta-E=       -0.000000000097 Rises=F Damp=F
 DIIS: error= 2.17D-07 at cycle   9 NSaved=   9.
 NSaved= 9 IEnMin= 9 EnMin= -153.750544964176     IErMin= 9 ErrMin= 2.17D-07
 ErrMax= 2.17D-07 EMaxC= 1.00D-01 BMatC= 4.01D-12 BMatP= 9.76D-11
 IDIUse=1 WtCom= 1.00D+00 WtEn= 0.00D+00
 Coeff-Com: -0.101D-04 0.234D-03 0.285D-03-0.642D-03-0.208D-02-0.116D-01
 Coeff-Com:  0.659D-02 0.169D+00 0.838D+00
 Coeff:     -0.101D-04 0.234D-03 0.285D-03-0.642D-03-0.208D-02-0.116D-01
 Coeff:      0.659D-02 0.169D+00 0.838D+00
 Gap=     0.170 Goal=   None    Shift=    0.000
 RMSDP=5.13D-08 MaxDP=8.76D-07 DE=-9.74D-11 OVMax= 1.41D-06

 Cycle  10  Pass 1  IDiag  1:
 E= -153.750544964181     Delta-E=       -0.000000000005 Rises=F Damp=F
 DIIS: error= 2.43D-08 at cycle  10 NSaved=  10.
 NSaved=10 IEnMin=10 EnMin= -153.750544964181     IErMin=10 ErrMin= 2.43D-08
 ErrMax= 2.43D-08 EMaxC= 1.00D-01 BMatC= 4.31D-14 BMatP= 4.01D-12
 IDIUse=1 WtCom= 1.00D+00 WtEn= 0.00D+00
 Coeff-Com: -0.296D-05 0.522D-04 0.681D-04-0.902D-04-0.372D-03-0.275D-02
 Coeff-Com: -0.235D-02 0.161D-01 0.124D+00 0.865D+00
 Coeff:     -0.296D-05 0.522D-04 0.681D-04-0.902D-04-0.372D-03-0.275D-02
 Coeff:     -0.235D-02 0.161D-01 0.124D+00 0.865D+00
 Gap=     0.170 Goal=   None    Shift=    0.000
 RMSDP=7.02D-09 MaxDP=1.15D-07 DE=-4.72D-12 OVMax= 1.44D-07

 SCF Done:  E(RB3LYP) =  -153.750544964     A.U. after   10 cycles
             Convg  =    0.7018D-08             -V/T =  2.0039
 KE= 1.531572953277D+02 PE=-4.978467197419D+02 EE= 1.218112723395D+02
 Leave Link  502 at Sun Aug 22 15:50:36 2010, MaxMem=  786432000 cpu:      34.6
 (Enter /usr/local/bin/gaussian09-A.02/g09/l801.exe)
 Range of M.O.s used for correlation:     1    94
 NBasis=    94 NAE=    12 NBE=    12 NFC=     0 NFV=     0
 NROrb=     94 NOA=    12 NOB=    12 NVA=    82 NVB=    82

 **** Warning!!: The largest alpha MO coefficient is  0.40676591D+02

 Leave Link  801 at Sun Aug 22 15:50:36 2010, MaxMem=  786432000 cpu:       0.2
 (Enter /usr/local/bin/gaussian09-A.02/g09/l1101.exe)
 Leave Link 1101 at Sun Aug 22 15:50:37 2010, MaxMem=  786432000 cpu:       0.2
 (Enter /usr/local/bin/gaussian09-A.02/g09/l1102.exe)
 Symmetrizing basis deriv contribution to polar:
 IMax=3 JMax=2 DiffMx= 0.00D+00
 Leave Link 1102 at Sun Aug 22 15:50:37 2010, MaxMem=  786432000 cpu:       0.2
 (Enter /usr/local/bin/gaussian09-A.02/g09/l1110.exe)
 Leave Link 1110 at Sun Aug 22 15:50:37 2010, MaxMem=  786432000 cpu:       0.2
 (Enter /usr/local/bin/gaussian09-A.02/g09/l1002.exe)
 Minotr:  Closed shell wavefunction.
 Leave Link 1002 at Sun Aug 22 15:50:37 2010, MaxMem=  786432000 cpu:       0.2
 (Enter /usr/local/bin/gaussian09-A.02/g09/l701.exe)
 Compute integral first derivatives.
 ... and contract with generalized density number  0.
 Leave Link  701 at Sun Aug 22 15:50:37 2010, MaxMem=  786432000 cpu:       0.8
 (Enter /usr/local/bin/gaussian09-A.02/g09/l702.exe)
 L702 exits ... SP integral derivatives will be done elsewhere.
 Leave Link  702 at Sun Aug 22 15:50:37 2010, MaxMem=  786432000 cpu:       0.2
 (Enter /usr/local/bin/gaussian09-A.02/g09/l703.exe)
 Compute integral first derivatives, UseDBF=F ICtDFT=           0.
 Integral derivatives from FoFDir, PRISM(SPDF).
 Calling FoFJK, ICntrl=      2147 FMM=F ISym2X=0 I1Cent= 0 IOpClX= 0 NMat=1 NMatS=1 NMatT=0.
 FoFCou: FMM=F IPFlag=           0 FMFlag=      100000 FMFlg1=         800
         NFxFlg=           0 DoJE=F BraDBF=F KetDBF=F FulRan=T
         Omega=  0.000000  0.000000  1.000000  0.000000  0.000000 ICntrl=    2147 IOpCl=  0
         NMat0=    1 NMatS0=    1 NMatT0=    0 NMatD0=    1 NMtDS0=    0 NMtDT0=    0
         I1Cent=           0 NGrid=           0.
 Symmetry not used in FoFCou.
 Leave Link  703 at Sun Aug 22 15:50:40 2010, MaxMem=  786432000 cpu:      10.5
 (Enter /usr/local/bin/gaussian09-A.02/g09/l716.exe)
 Dipole        = 6.08912600D-01-2.50395811D-02 2.12119211D-12
 Polarizability= 0.00000000D+00 0.00000000D+00 0.00000000D+00
                 0.00000000D+00 0.00000000D+00 0.00000000D+00
 -------------------------------------------------------------------
 Center     Atomic                   Forces (Hartrees/Bohr)
 Number     Number              X              Y              Z
 -------------------------------------------------------------------
      1        6          -0.015158892   -0.000620432    0.000000000
      2        8           0.000318470   -0.011383633    0.000000000
      3        6           0.001829702    0.003229935    0.000000000
      4        1           0.013454789    0.008382191    0.000000000
      5        1          -0.000665351    0.000721531    0.000000000
      6        1           0.000110641   -0.000164796    0.000061750
      7        1           0.000110641   -0.000164796   -0.000061750
 -------------------------------------------------------------------
 Cartesian Forces:  Max     0.015158892 RMS     0.005459757
 Leave Link  716 at Sun Aug 22 15:50:40 2010, MaxMem=  786432000 cpu:       0.2
 (Enter /usr/local/bin/gaussian09-A.02/g09/l123.exe)
 IRC-IRC-IRC-IRC-IRC-IRC-IRC-IRC-IRC-IRC-IRC-IRC-IRC-IRC-IRC-IRC-IRC-IRC
 Pt  1 Step number   1 out of a maximum of  40
 Using modified Bulirsch-Stoer corrector interation.
   Using distance weighted interpolants to fit PES.
    Cycle     1 NS=     2
    Cycle     2 NS=     4 Truncation Error =  0.010581529
    Cycle     3 NS=     6 Truncation Error =  0.000001418
    Cycle     4 NS=     8 Truncation Error =  0.000000754
    Cycle     5 NS=    12 Truncation Error =  0.000000052
    Cycle     6 NS=    16 Truncation Error =  0.000000001
 BS completed in    6 cycles and      48 integration steps.
 SUMMARY OF CORRECTOR INTEGRATION:
   Original End Point Energy  =  -153.750545
   Corrected End Point Energy =  -153.750545
   Old End-Start Dist.        =     0.105350
   New End-Start Dist.        =     0.105349
   New End-Old End Dist.      =     0.000432
 CORRECTOR INTEGRATION CONVERGENCE:
   Recorrection delta-x convergence threshold:    0.001826
   Delta-x Convergence Met
 Point Number:   1          Path Number:   1
                    CURRENT STRUCTURE
                Cartesian Coordinates (Ang):                
 ---------------------------------------------------------------------
 Center     Atomic                     Coordinates (Angstroms)
 Number     Number                        X           Y           Z
 ---------------------------------------------------------------------
      1          6                    0.066535    0.504716    0.000000
      2          8                   -1.152105    0.042667    0.000000
      3          6                    1.177749   -0.485694    0.000000
      4          1                   -0.938874    1.231690    0.000000
      5          1                    0.786091   -1.509945    0.000000
      6          1                    1.811028   -0.312697    0.876635
      7          1                    1.811028   -0.312697   -0.876635
 ---------------------------------------------------------------------
   CHANGE IN THE REACTION COORDINATE =    0.10535
   NET REACTION COORDINATE UP TO THIS POINT =    0.10535
  # OF POINTS ALONG THE PATH =   1
  # OF STEPS =   1

 Calculating another point on the path.
 Point Number  2 in REVERSE path direction.
 Using LQA Reaction Path Following.
   LQA: T_Est iteration completed in    3 iterations.
 IRC-IRC-IRC-IRC-IRC-IRC-IRC-IRC-IRC-IRC-IRC-IRC-IRC-IRC-IRC-IRC-IRC-IRC
 Leave Link  123 at Sun Aug 22 15:50:40 2010, MaxMem=  786432000 cpu:       0.0
 (Enter /usr/local/bin/gaussian09-A.02/g09/l202.exe)
                          Input orientation:                          
 ---------------------------------------------------------------------
 Center     Atomic      Atomic             Coordinates (Angstroms)
 Number     Number       Type             X           Y           Z
 ---------------------------------------------------------------------
      1          6           0        0.062336    0.504558    0.000000
      2          8           0       -1.152057    0.040289    0.000000
      3          6           0        1.178259   -0.484792    0.000000
      4          1           0       -0.894212    1.259305    0.000000
      5          1           0        0.783859   -1.507600    0.000000
      6          1           0        1.811393   -0.313237    0.876847
      7          1           0        1.811393   -0.313237   -0.876847
 ---------------------------------------------------------------------
                    Distance matrix (angstroms):
                    1          2          3          4          5
     1  C    0.000000
     2  O    1.300114   0.000000
     3  C    1.491341   2.388740   0.000000
     4  H    1.218452   1.245987   2.708691   0.000000
     5  H    2.137610   2.478654   1.096215   3.235998   0.000000
     6  H    2.120578   3.110607   1.095057   3.249930   1.803105
     7  H    2.120578   3.110607   1.095057   3.249930   1.803105
                    6          7
     6  H    0.000000
     7  H    1.753694   0.000000
 Symmetry turned off by external request.
 Stoichiometry    C2H4O
 Framework group  CS[SG(C2H2O),X(H2)]
 Deg. of freedom    10
 Full point group                 CS      NOp   2
 Rotational constants (GHZ):     58.7508533     10.0155955      9.0307904
 Leave Link  202 at Sun Aug 22 15:50:40 2010, MaxMem=  786432000 cpu:       0.0
 (Enter /usr/local/bin/gaussian09-A.02/g09/l301.exe)
 Standard basis: 6-311++G(d,p) (5D, 7F)
 Ernie: Thresh=  0.10000D-02 Tol=  0.10000D-05 Strict=F.
 Integral buffers will be    131072 words long.
 Raffenetti 2 integral format.
 Two-electron integral symmetry is turned off.
    94 basis functions,   144 primitive gaussians,    97 cartesian basis functions
    12 alpha electrons       12 beta electrons
       nuclear repulsion energy        69.1031189697 Hartrees.
 IExCor=  402 DFT=T Ex+Corr=B3LYP ExCW=0 ScaHFX=  0.200000
 ScaDFX=  0.800000  0.720000  1.000000  0.810000 ScalE2=  1.000000  1.000000
 IRadAn=      5 IRanWt=     -1 IRanGd=            0 ICorTp=0
 NAtoms=    7 NActive=    7 NUniq=    7 SFac= 7.50D-01 NAtFMM=   80 NAOKFM=F Big=F
 Leave Link  301 at Sun Aug 22 15:50:40 2010, MaxMem=  786432000 cpu:       0.3
 (Enter /usr/local/bin/gaussian09-A.02/g09/l302.exe)
 NPDir=0 NMtPBC=     1 NCelOv=     1 NCel=       1 NClECP=     1 NCelD=      1
         NCelK=      1 NCelE2=     1 NClLst=     1 CellRange=     0.0.
 One-electron integrals computed using PRISM.
 NBasis=    94 RedAO= T  NBF=    94
 NBsUse=    94 1.00D-06 NBFU=    94
 Precomputing XC quadrature grid using
 IXCGrd= 2 IRadAn=           5 IRanWt=          -1 IRanGd=           0 AccXCQ= 1.00D-10.
 NRdTot=     594 NPtTot=      159582 NUsed=      163844 NTot=      163876
 NSgBfM=    97    97    97    97    97 NAtAll=     7     7.
 Leave Link  302 at Sun Aug 22 15:50:40 2010, MaxMem=  786432000 cpu:       1.1
 (Enter /usr/local/bin/gaussian09-A.02/g09/l303.exe)
 DipDrv:  MaxL=1.
 Leave Link  303 at Sun Aug 22 15:50:40 2010, MaxMem=  786432000 cpu:       0.2
 (Enter /usr/local/bin/gaussian09-A.02/g09/l401.exe)
 Initial guess read from the read-write file.
 B after Tr=     0.000000    0.000000    0.000000
         Rot=    1.000000    0.000000    0.000000    0.000000 Ang=   0.00 deg.
 Guess basis will be translated and rotated to current coordinates.
 Generating alternative initial guess.
 Harris functional with IExCor=  402 diagonalized for initial guess.
 ExpMin= 3.60D-02 ExpMax= 8.59D+03 ExpMxC= 1.30D+03 IAcc=3 IRadAn=         5 AccDes= 0.00D+00
 HarFok:  IExCor=  402 AccDes= 0.00D+00 IRadAn=         5 IDoV= 1
 ScaDFX=  1.000000  1.000000  1.000000  1.000000
 FoFCou: FMM=F IPFlag=           0 FMFlag=      100000 FMFlg1=           0
         NFxFlg=           0 DoJE=T BraDBF=F KetDBF=T FulRan=T
         Omega=  0.000000  0.000000  1.000000  0.000000  0.000000 ICntrl=     500 IOpCl=  0
         NMat0=    1 NMatS0=    1 NMatT0=    0 NMatD0=    1 NMtDS0=    0 NMtDT0=    0
         I1Cent=           4 NGrid=           0.
 Symmetry not used in FoFCou.
 Harris En= -153.788271635118    
 Leave Link  401 at Sun Aug 22 15:50:41 2010, MaxMem=  786432000 cpu:       3.7
 (Enter /usr/local/bin/gaussian09-A.02/g09/l502.exe)
 Closed shell SCF:
 Requested convergence on RMS density matrix=1.00D-08 within 128 cycles.
 Requested convergence on MAX density matrix=1.00D-06.
 Requested convergence on             energy=1.00D-06.
 No special actions if energy rises.
 Using DIIS extrapolation, IDIIS=  1040.
 Two-electron integral symmetry not used.
       163768 words used for storage of precomputed grid.
 Keep R1 ints in memory in canonical form, NReq=12429260.
 IEnd=      211319 IEndB=      211319 NGot=   786432000 MDV=   774948919
 LenX=   774948919 LenY=   774939069
 Symmetry not used in FoFDir.
 MinBra= 0 MaxBra= 2 Meth= 1.
 IRaf=       0 NMat=   1 IRICut=       1 DoRegI=T DoRafI=F ISym2E= 0 JSym2E=0.

 Cycle   1  Pass 1  IDiag  1:
 E= -153.751877617760    
 DIIS: error= 2.51D-03 at cycle   1 NSaved=   1.
 NSaved= 1 IEnMin= 1 EnMin= -153.751877617760     IErMin= 1 ErrMin= 2.51D-03
 ErrMax= 2.51D-03 EMaxC= 1.00D-01 BMatC= 7.48D-04 BMatP= 7.48D-04
 IDIUse=3 WtCom= 9.75D-01 WtEn= 2.51D-02
 Coeff-Com:  0.100D+01
 Coeff-En:   0.100D+01
 Coeff:      0.100D+01
 Gap=     0.172 Goal=   None    Shift=    0.000
 GapD=    0.172 DampG=1.000 DampE=1.000 DampFc=1.0000 IDamp=-1.
 RMSDP=5.74D-04 MaxDP=9.99D-03              OVMax= 2.35D-02

 Cycle   2  Pass 1  IDiag  1:
 E= -153.752965401063     Delta-E=       -0.001087783304 Rises=F Damp=F
 DIIS: error= 2.20D-03 at cycle   2 NSaved=   2.
 NSaved= 2 IEnMin= 2 EnMin= -153.752965401063     IErMin= 2 ErrMin= 2.20D-03
 ErrMax= 2.20D-03 EMaxC= 1.00D-01 BMatC= 2.72D-04 BMatP= 7.48D-04
 IDIUse=3 WtCom= 9.78D-01 WtEn= 2.20D-02
 Coeff-Com:  0.303D+00 0.697D+00
 Coeff-En:   0.000D+00 0.100D+01
 Coeff:      0.296D+00 0.704D+00
 Gap=     0.173 Goal=   None    Shift=    0.000
 RMSDP=2.97D-04 MaxDP=4.38D-03 DE=-1.09D-03 OVMax= 1.27D-02

 Cycle   3  Pass 1  IDiag  1:
 E= -153.752721986791     Delta-E=        0.000243414272 Rises=F Damp=F
 DIIS: error= 3.71D-03 at cycle   3 NSaved=   3.
 NSaved= 3 IEnMin= 2 EnMin= -153.752965401063     IErMin= 2 ErrMin= 2.20D-03
 ErrMax= 3.71D-03 EMaxC= 1.00D-01 BMatC= 6.10D-04 BMatP= 2.72D-04
 IDIUse=3 WtCom= 1.41D-01 WtEn= 8.59D-01
 Coeff-Com: -0.420D-01 0.619D+00 0.423D+00
 Coeff-En:   0.000D+00 0.640D+00 0.360D+00
 Coeff:     -0.592D-02 0.637D+00 0.369D+00
 Gap=     0.172 Goal=   None    Shift=    0.000
 RMSDP=1.41D-04 MaxDP=2.26D-03 DE= 2.43D-04 OVMax= 8.05D-03

 Cycle   4  Pass 1  IDiag  1:
 E= -153.753176318387     Delta-E=       -0.000454331596 Rises=F Damp=F
 DIIS: error= 3.24D-04 at cycle   4 NSaved=   4.
 NSaved= 4 IEnMin= 4 EnMin= -153.753176318387     IErMin= 4 ErrMin= 3.24D-04
 ErrMax= 3.24D-04 EMaxC= 1.00D-01 BMatC= 6.11D-06 BMatP= 2.72D-04
 IDIUse=3 WtCom= 9.97D-01 WtEn= 3.24D-03
 Coeff-Com: -0.198D-01 0.188D+00 0.640D-01 0.768D+00
 Coeff-En:   0.000D+00 0.000D+00 0.000D+00 0.100D+01
 Coeff:     -0.197D-01 0.187D+00 0.638D-01 0.769D+00
 Gap=     0.172 Goal=   None    Shift=    0.000
 RMSDP=3.41D-05 MaxDP=5.86D-04 DE=-4.54D-04 OVMax= 9.16D-04

 Cycle   5  Pass 1  IDiag  1:
 E= -153.753181027957     Delta-E=       -0.000004709570 Rises=F Damp=F
 DIIS: error= 8.24D-05 at cycle   5 NSaved=   5.
 NSaved= 5 IEnMin= 5 EnMin= -153.753181027957     IErMin= 5 ErrMin= 8.24D-05
 ErrMax= 8.24D-05 EMaxC= 1.00D-01 BMatC= 6.15D-07 BMatP= 6.11D-06
 IDIUse=1 WtCom= 1.00D+00 WtEn= 0.00D+00
 Coeff-Com: -0.367D-02 0.245D-02-0.292D-01 0.373D+00 0.657D+00
 Coeff:     -0.367D-02 0.245D-02-0.292D-01 0.373D+00 0.657D+00
 Gap=     0.172 Goal=   None    Shift=    0.000
 RMSDP=9.65D-06 MaxDP=1.91D-04 DE=-4.71D-06 OVMax= 2.96D-04

 Cycle   6  Pass 1  IDiag  1:
 E= -153.753181648411     Delta-E=       -0.000000620453 Rises=F Damp=F
 DIIS: error= 2.24D-05 at cycle   6 NSaved=   6.
 NSaved= 6 IEnMin= 6 EnMin= -153.753181648411     IErMin= 6 ErrMin= 2.24D-05
 ErrMax= 2.24D-05 EMaxC= 1.00D-01 BMatC= 3.62D-08 BMatP= 6.15D-07
 IDIUse=1 WtCom= 1.00D+00 WtEn= 0.00D+00
 Coeff-Com:  0.766D-03-0.189D-01-0.213D-01 0.456D-01 0.162D+00 0.832D+00
 Coeff:      0.766D-03-0.189D-01-0.213D-01 0.456D-01 0.162D+00 0.832D+00
 Gap=     0.172 Goal=   None    Shift=    0.000
 RMSDP=4.06D-06 MaxDP=8.11D-05 DE=-6.20D-07 OVMax= 1.05D-04

 Cycle   7  Pass 1  IDiag  1:
 E= -153.753181688665     Delta-E=       -0.000000040255 Rises=F Damp=F
 DIIS: error= 3.72D-06 at cycle   7 NSaved=   7.
 NSaved= 7 IEnMin= 7 EnMin= -153.753181688665     IErMin= 7 ErrMin= 3.72D-06
 ErrMax= 3.72D-06 EMaxC= 1.00D-01 BMatC= 9.63D-10 BMatP= 3.62D-08
 IDIUse=1 WtCom= 1.00D+00 WtEn= 0.00D+00
 Coeff-Com:  0.385D-03-0.497D-02-0.516D-02-0.332D-03 0.156D-01 0.219D+00
 Coeff-Com:  0.775D+00
 Coeff:      0.385D-03-0.497D-02-0.516D-02-0.332D-03 0.156D-01 0.219D+00
 Coeff:      0.775D+00
 Gap=     0.172 Goal=   None    Shift=    0.000
 RMSDP=6.43D-07 MaxDP=1.18D-05 DE=-4.03D-08 OVMax= 1.55D-05

 Cycle   8  Pass 1  IDiag  1:
 E= -153.753181689540     Delta-E=       -0.000000000874 Rises=F Damp=F
 DIIS: error= 8.92D-07 at cycle   8 NSaved=   8.
 NSaved= 8 IEnMin= 8 EnMin= -153.753181689540     IErMin= 8 ErrMin= 8.92D-07
 ErrMax= 8.92D-07 EMaxC= 1.00D-01 BMatC= 5.89D-11 BMatP= 9.63D-10
 IDIUse=1 WtCom= 1.00D+00 WtEn= 0.00D+00
 Coeff-Com:  0.128D-03-0.148D-02-0.152D-02-0.120D-02 0.207D-02 0.629D-01
 Coeff-Com:  0.308D+00 0.631D+00
 Coeff:      0.128D-03-0.148D-02-0.152D-02-0.120D-02 0.207D-02 0.629D-01
 Coeff:      0.308D+00 0.631D+00
 Gap=     0.172 Goal=   None    Shift=    0.000
 RMSDP=1.91D-07 MaxDP=4.01D-06 DE=-8.74D-10 OVMax= 3.04D-06

 Cycle   9  Pass 1  IDiag  1:
 E= -153.753181689596     Delta-E=       -0.000000000056 Rises=F Damp=F
 DIIS: error= 2.80D-07 at cycle   9 NSaved=   9.
 NSaved= 9 IEnMin= 9 EnMin= -153.753181689596     IErMin= 9 ErrMin= 2.80D-07
 ErrMax= 2.80D-07 EMaxC= 1.00D-01 BMatC= 5.50D-12 BMatP= 5.89D-11
 IDIUse=1 WtCom= 1.00D+00 WtEn= 0.00D+00
 Coeff-Com: -0.963D-05 0.227D-03 0.274D-03-0.600D-03-0.199D-02-0.109D-01
 Coeff-Com:  0.292D-02 0.232D+00 0.778D+00
 Coeff:     -0.963D-05 0.227D-03 0.274D-03-0.600D-03-0.199D-02-0.109D-01
 Coeff:      0.292D-02 0.232D+00 0.778D+00
 Gap=     0.172 Goal=   None    Shift=    0.000
 RMSDP=4.40D-08 MaxDP=6.16D-07 DE=-5.64D-11 OVMax= 1.43D-06

 Cycle  10  Pass 1  IDiag  1:
 E= -153.753181689602     Delta-E=       -0.000000000006 Rises=F Damp=F
 DIIS: error= 2.44D-08 at cycle  10 NSaved=  10.
 NSaved=10 IEnMin=10 EnMin= -153.753181689602     IErMin=10 ErrMin= 2.44D-08
 ErrMax= 2.44D-08 EMaxC= 1.00D-01 BMatC= 4.80D-14 BMatP= 5.50D-12
 IDIUse=1 WtCom= 1.00D+00 WtEn= 0.00D+00
 Coeff-Com: -0.310D-05 0.547D-04 0.697D-04-0.871D-04-0.360D-03-0.263D-02
 Coeff-Com: -0.323D-02 0.251D-01 0.123D+00 0.858D+00
 Coeff:     -0.310D-05 0.547D-04 0.697D-04-0.871D-04-0.360D-03-0.263D-02
 Coeff:     -0.323D-02 0.251D-01 0.123D+00 0.858D+00
 Gap=     0.172 Goal=   None    Shift=    0.000
 RMSDP=6.30D-09 MaxDP=9.01D-08 DE=-5.97D-12 OVMax= 1.39D-07

 SCF Done:  E(RB3LYP) =  -153.753181690     A.U. after   10 cycles
             Convg  =    0.6303D-08             -V/T =  2.0039
 KE= 1.531510671381D+02 PE=-4.978301204779D+02 EE= 1.218227526806D+02
 Leave Link  502 at Sun Aug 22 15:50:50 2010, MaxMem=  786432000 cpu:      34.6
 (Enter /usr/local/bin/gaussian09-A.02/g09/l801.exe)
 Range of M.O.s used for correlation:     1    94
 NBasis=    94 NAE=    12 NBE=    12 NFC=     0 NFV=     0
 NROrb=     94 NOA=    12 NOB=    12 NVA=    82 NVB=    82

 **** Warning!!: The largest alpha MO coefficient is  0.40899410D+02

 Leave Link  801 at Sun Aug 22 15:50:50 2010, MaxMem=  786432000 cpu:       0.2
 (Enter /usr/local/bin/gaussian09-A.02/g09/l1101.exe)
 Leave Link 1101 at Sun Aug 22 15:50:50 2010, MaxMem=  786432000 cpu:       0.2
 (Enter /usr/local/bin/gaussian09-A.02/g09/l1102.exe)
 Symmetrizing basis deriv contribution to polar:
 IMax=3 JMax=2 DiffMx= 0.00D+00
 Leave Link 1102 at Sun Aug 22 15:50:50 2010, MaxMem=  786432000 cpu:       0.2
 (Enter /usr/local/bin/gaussian09-A.02/g09/l1110.exe)
 Leave Link 1110 at Sun Aug 22 15:50:50 2010, MaxMem=  786432000 cpu:       0.2
 (Enter /usr/local/bin/gaussian09-A.02/g09/l1002.exe)
 Minotr:  Closed shell wavefunction.
 Leave Link 1002 at Sun Aug 22 15:50:50 2010, MaxMem=  786432000 cpu:       0.2
 (Enter /usr/local/bin/gaussian09-A.02/g09/l701.exe)
 Compute integral first derivatives.
 ... and contract with generalized density number  0.
 Leave Link  701 at Sun Aug 22 15:50:50 2010, MaxMem=  786432000 cpu:       0.8
 (Enter /usr/local/bin/gaussian09-A.02/g09/l702.exe)
 L702 exits ... SP integral derivatives will be done elsewhere.
 Leave Link  702 at Sun Aug 22 15:50:50 2010, MaxMem=  786432000 cpu:       0.2
 (Enter /usr/local/bin/gaussian09-A.02/g09/l703.exe)
 Compute integral first derivatives, UseDBF=F ICtDFT=           0.
 Integral derivatives from FoFDir, PRISM(SPDF).
 Calling FoFJK, ICntrl=      2147 FMM=F ISym2X=0 I1Cent= 0 IOpClX= 0 NMat=1 NMatS=1 NMatT=0.
 FoFCou: FMM=F IPFlag=           0 FMFlag=      100000 FMFlg1=         800
         NFxFlg=           0 DoJE=F BraDBF=F KetDBF=F FulRan=T
         Omega=  0.000000  0.000000  1.000000  0.000000  0.000000 ICntrl=    2147 IOpCl=  0
         NMat0=    1 NMatS0=    1 NMatT0=    0 NMatD0=    1 NMtDS0=    0 NMtDT0=    0
         I1Cent=           0 NGrid=           0.
 Symmetry not used in FoFCou.
 Leave Link  703 at Sun Aug 22 15:50:53 2010, MaxMem=  786432000 cpu:      10.4
 (Enter /usr/local/bin/gaussian09-A.02/g09/l716.exe)
 Dipole        = 6.87981379D-01 9.98251616D-03-7.79176723D-12
 Polarizability= 0.00000000D+00 0.00000000D+00 0.00000000D+00
                 0.00000000D+00 0.00000000D+00 0.00000000D+00
 -------------------------------------------------------------------
 Center     Atomic                   Forces (Hartrees/Bohr)
 Number     Number              X              Y              Z
 -------------------------------------------------------------------
      1        6          -0.030837027   -0.001562273    0.000000000
      2        8           0.001256051   -0.022278596    0.000000000
      3        6           0.003608482    0.006471800    0.000000000
      4        1           0.026812883    0.016587407    0.000000000
      5        1          -0.001282612    0.001435858    0.000000000
      6        1           0.000221112   -0.000327098    0.000119623
      7        1           0.000221112   -0.000327098   -0.000119623
 -------------------------------------------------------------------
 Cartesian Forces:  Max     0.030837027 RMS     0.010920278
 Leave Link  716 at Sun Aug 22 15:50:53 2010, MaxMem=  786432000 cpu:       0.2
 (Enter /usr/local/bin/gaussian09-A.02/g09/l123.exe)
 IRC-IRC-IRC-IRC-IRC-IRC-IRC-IRC-IRC-IRC-IRC-IRC-IRC-IRC-IRC-IRC-IRC-IRC
 Pt  2 Step number   1 out of a maximum of  40
 Using modified Bulirsch-Stoer corrector interation.
   Using distance weighted interpolants to fit PES.
    Cycle     1 NS=     2
    Cycle     2 NS=     4 Truncation Error =  0.000073612
    Cycle     3 NS=     6 Truncation Error =  0.000002400
    Cycle     4 NS=     8 Truncation Error =  0.000000467
    Cycle     5 NS=    12 Truncation Error =  0.000000080
    Cycle     6 NS=    16 Truncation Error =  0.000000010
 BS completed in    6 cycles and      48 integration steps.
 SUMMARY OF CORRECTOR INTEGRATION:
   Original End Point Energy  =  -153.753182
   Corrected End Point Energy =  -153.753182
   Old End-Start Dist.        =     0.105313
   New End-Start Dist.        =     0.105313
   New End-Old End Dist.      =     0.000433
 CORRECTOR INTEGRATION CONVERGENCE:
   Recorrection delta-x convergence threshold:    0.001826
   Delta-x Convergence Met
 Point Number:   2          Path Number:   1
                    CURRENT STRUCTURE
                Cartesian Coordinates (Ang):                
 ---------------------------------------------------------------------
 Center     Atomic                     Coordinates (Angstroms)
 Number     Number                        X           Y           Z
 ---------------------------------------------------------------------
      1          6                    0.062294    0.504534    0.000000
      2          8                   -1.152024    0.040306    0.000000
      3          6                    1.178256   -0.484791    0.000000
      4          1                   -0.894243    1.259301    0.000000
      5          1                    0.783897   -1.507589    0.000000
      6          1                    1.811394   -0.313238    0.876842
      7          1                    1.811394   -0.313238   -0.876842
 ---------------------------------------------------------------------
   CHANGE IN THE REACTION COORDINATE =    0.10531
   NET REACTION COORDINATE UP TO THIS POINT =    0.21066
  # OF POINTS ALONG THE PATH =   2
  # OF STEPS =   1

 Calculating another point on the path.
 Point Number  3 in REVERSE path direction.
 Using LQA Reaction Path Following.
   LQA: T_Est iteration completed in    3 iterations.
 IRC-IRC-IRC-IRC-IRC-IRC-IRC-IRC-IRC-IRC-IRC-IRC-IRC-IRC-IRC-IRC-IRC-IRC
 Leave Link  123 at Sun Aug 22 15:50:53 2010, MaxMem=  786432000 cpu:       0.0
 (Enter /usr/local/bin/gaussian09-A.02/g09/l202.exe)
                          Input orientation:                          
 ---------------------------------------------------------------------
 Center     Atomic      Atomic             Coordinates (Angstroms)
 Number     Number       Type             X           Y           Z
 ---------------------------------------------------------------------
      1          6           0        0.057986    0.504313    0.000000
      2          8           0       -1.151891    0.037972    0.000000
      3          6           0        1.178760   -0.483885    0.000000
      4          1           0       -0.849653    1.286899    0.000000
      5          1           0        0.781765   -1.505232    0.000000
      6          1           0        1.811759   -0.313777    0.877043
      7          1           0        1.811759   -0.313777   -0.877043
 ---------------------------------------------------------------------
                    Distance matrix (angstroms):
                    1          2          3          4          5
     1  C    0.000000
     2  O    1.296640   0.000000
     3  C    1.494212   2.388361   0.000000
     4  H    1.198436   1.284977   2.692607   0.000000
     5  H    2.135914   2.473965   1.095790   3.233809   0.000000
     6  H    2.124664   3.110652   1.094911   3.227148   1.802681
     7  H    2.124664   3.110652   1.094911   3.227148   1.802681
                    6          7
     6  H    0.000000
     7  H    1.754086   0.000000
 Symmetry turned off by external request.
 Stoichiometry    C2H4O
 Framework group  CS[SG(C2H2O),X(H2)]
 Deg. of freedom    10
 Full point group                 CS      NOp   2
 Rotational constants (GHZ):     58.2668728     10.0353496      9.0355148
 Leave Link  202 at Sun Aug 22 15:50:53 2010, MaxMem=  786432000 cpu:       0.0
 (Enter /usr/local/bin/gaussian09-A.02/g09/l301.exe)
 Standard basis: 6-311++G(d,p) (5D, 7F)
 Ernie: Thresh=  0.10000D-02 Tol=  0.10000D-05 Strict=F.
 Integral buffers will be    131072 words long.
 Raffenetti 2 integral format.
 Two-electron integral symmetry is turned off.
    94 basis functions,   144 primitive gaussians,    97 cartesian basis functions
    12 alpha electrons       12 beta electrons
       nuclear repulsion energy        69.0830254815 Hartrees.
 IExCor=  402 DFT=T Ex+Corr=B3LYP ExCW=0 ScaHFX=  0.200000
 ScaDFX=  0.800000  0.720000  1.000000  0.810000 ScalE2=  1.000000  1.000000
 IRadAn=      5 IRanWt=     -1 IRanGd=            0 ICorTp=0
 NAtoms=    7 NActive=    7 NUniq=    7 SFac= 7.50D-01 NAtFMM=   80 NAOKFM=F Big=F
 Leave Link  301 at Sun Aug 22 15:50:53 2010, MaxMem=  786432000 cpu:       0.3
 (Enter /usr/local/bin/gaussian09-A.02/g09/l302.exe)
 NPDir=0 NMtPBC=     1 NCelOv=     1 NCel=       1 NClECP=     1 NCelD=      1
         NCelK=      1 NCelE2=     1 NClLst=     1 CellRange=     0.0.
 One-electron integrals computed using PRISM.
 NBasis=    94 RedAO= T  NBF=    94
 NBsUse=    94 1.00D-06 NBFU=    94
 Precomputing XC quadrature grid using
 IXCGrd= 2 IRadAn=           5 IRanWt=          -1 IRanGd=           0 AccXCQ= 1.00D-10.
 NRdTot=     594 NPtTot=      159582 NUsed=      163844 NTot=      163876
 NSgBfM=    97    97    97    97    97 NAtAll=     7     7.
 Leave Link  302 at Sun Aug 22 15:50:53 2010, MaxMem=  786432000 cpu:       1.1
 (Enter /usr/local/bin/gaussian09-A.02/g09/l303.exe)
 DipDrv:  MaxL=1.
 Leave Link  303 at Sun Aug 22 15:50:54 2010, MaxMem=  786432000 cpu:       0.2
 (Enter /usr/local/bin/gaussian09-A.02/g09/l401.exe)
 Initial guess read from the read-write file.
 B after Tr=     0.000000    0.000000    0.000000
         Rot=    1.000000    0.000000    0.000000    0.000000 Ang=   0.00 deg.
 Guess basis will be translated and rotated to current coordinates.
 Generating alternative initial guess.
 Harris functional with IExCor=  402 diagonalized for initial guess.
 ExpMin= 3.60D-02 ExpMax= 8.59D+03 ExpMxC= 1.30D+03 IAcc=3 IRadAn=         5 AccDes= 0.00D+00
 HarFok:  IExCor=  402 AccDes= 0.00D+00 IRadAn=         5 IDoV= 1
 ScaDFX=  1.000000  1.000000  1.000000  1.000000
 FoFCou: FMM=F IPFlag=           0 FMFlag=      100000 FMFlg1=           0
         NFxFlg=           0 DoJE=T BraDBF=F KetDBF=T FulRan=T
[...]
 --------------------------------------------------------------------------
    Summary of reaction path following
 --------------------------------------------------------------------------
                        Energy   Rx Coord     R1        R2        R3
   1                   -0.13258  -2.90717   1.20600   1.50387   1.11228
   2                   -0.13258  -2.89366   1.20598   1.50362   1.11224
   3                   -0.13255  -2.83622   1.20593   1.50266   1.11205
   4                   -0.13242  -2.73279   1.20598   1.50246   1.11169
   5                   -0.13217  -2.62900   1.20620   1.50522   1.11127
   6                   -0.13178  -2.52520   1.20645   1.51093   1.11085
   7                   -0.13116  -2.42088   1.20668   1.51885   1.11032
   8                   -0.13019  -2.31639   1.20752   1.52557   1.10969
   9                   -0.12870  -2.21145   1.20952   1.52980   1.10895
  10                   -0.12656  -2.10629   1.21268   1.53190   1.10832
  11                   -0.12370  -2.00104   1.21678   1.53250   1.10739
  12                   -0.12007  -1.89576   1.22155   1.53205   1.10652
  13                   -0.11567  -1.79047   1.22680   1.53087   1.10572
  14                   -0.11048  -1.68516   1.23236   1.52918   1.10511
  15                   -0.10453  -1.57985   1.23807   1.52713   1.10493
  16                   -0.09784  -1.47453   1.24385   1.52483   1.10513
  17                   -0.09046  -1.36921   1.24958   1.52235   1.10609
  18                   -0.08246  -1.26389   1.25523   1.51974   1.10798
  19                   -0.07394  -1.15857   1.26072   1.51705   1.11102
  20                   -0.06502  -1.05325   1.26602   1.51429   1.11548
  21                   -0.05585  -0.94792   1.27111   1.51149   1.12145
  22                   -0.04660  -0.84260   1.27596   1.50865   1.12923
  23                   -0.03749  -0.73728   1.28057   1.50578   1.13892
  24                   -0.02878  -0.63195   1.28492   1.50289   1.15064
  25                   -0.02074  -0.52663   1.28905   1.50000   1.16447
  26                   -0.01366  -0.42130   1.29292   1.49710   1.18035
  27                   -0.00783  -0.31598   1.29658   1.49422   1.19835
  28                   -0.00351  -0.21066   1.30003   1.49135   1.21846
  29                   -0.00088  -0.10535   1.30329   1.48853   1.24070
  30                    0.00000   0.00000   1.30641   1.48574   1.26512
                          R4        R5        R6        R7        A1
   1                    2.00909   1.08988   1.09565   1.09565 124.78650
   2                    2.00937   1.08989   1.09564   1.09564 124.65967
   3                    2.01051   1.08991   1.09557   1.09557 124.11921
   4                    2.01235   1.08998   1.09544   1.09544 123.13501
   5                    2.01289   1.09012   1.09531   1.09531 122.14843
   6                    2.01080   1.09027   1.09516   1.09516 121.19950
   7                    2.00066   1.09039   1.09499   1.09499 120.39005
   8                    1.98168   1.09044   1.09481   1.09481 119.79527
   9                    1.95679   1.09044   1.09462   1.09462 119.38386
  10                    1.92872   1.09043   1.09444   1.09444 119.08944
  11                    1.89835   1.09044   1.09429   1.09429 118.86093
  12                    1.86636   1.09049   1.09417   1.09417 118.67439
  13                    1.83293   1.09059   1.09407   1.09407 118.51442
  14                    1.79818   1.09073   1.09400   1.09400 118.37284
  15                    1.76228   1.09093   1.09395   1.09395 118.24573
  16                    1.72519   1.09118   1.09393   1.09393 118.12911
  17                    1.68713   1.09147   1.09393   1.09393 118.02298
  18                    1.64822   1.09180   1.09396   1.09396 117.92651
  19                    1.60859   1.09218   1.09400   1.09400 117.83974
  20                    1.56843   1.09259   1.09407   1.09407 117.76320
  21                    1.52782   1.09302   1.09415   1.09415 117.69707
  22                    1.48700   1.09348   1.09425   1.09425 117.64191
  23                    1.44611   1.09395   1.09437   1.09437 117.59767
  24                    1.40529   1.09442   1.09449   1.09449 117.56414
  25                    1.36474   1.09488   1.09463   1.09463 117.54039
  26                    1.32453   1.09534   1.09477   1.09477 117.52657
  27                    1.28488   1.09578   1.09491   1.09491 117.52040
  28                    1.24595   1.09619   1.09505   1.09505 117.52067
  29                    1.20799   1.09658   1.09520   1.09520 117.52550
  30                    1.17125   1.09694   1.09534   1.09534 117.53250
                          A2        A3        A4        A5        A6
   1                  115.12849 110.97071 109.44836 109.44835 110.10346
   2                  115.22288 110.88043 109.49313 109.49313 110.09939
   3                  115.62968 110.48740 109.68956 109.68956 110.07708
   4                  116.40488 109.70808 110.10131 110.10131 110.00254
   5                  117.32037 108.82531 110.58851 110.58851 109.88548
   6                  118.46335 107.89796 111.10075 111.10075 109.75559
   7                  120.25080 107.06238 111.50831 111.50831 109.70153
   8                  122.70230 106.46680 111.73230 111.73230 109.74889
   9                  125.55465 106.12429 111.80511 111.80511 109.85137
  10                  128.58747 105.96912 111.78570 111.78570 109.96890
  11                  131.70020 105.94543 111.71021 111.71021 110.08420
  12                  134.84935 106.01311 111.60111 111.60111 110.19042
  13                  138.01547 106.14745 111.47019 111.47019 110.28564
  14                  141.18879 106.33126 111.32506 111.32506 110.36964
  15                  144.36334 106.55194 111.17097 111.17097 110.44290
  16                  147.53572 106.80140 111.01095 111.01095 110.50611
  17                  150.70178 107.07195 110.84799 110.84799 110.56015
  18                  153.85734 107.35847 110.68393 110.68393 110.60582
  19                  156.99724 107.65667 110.52031 110.52031 110.64388
  20                  160.11486 107.96290 110.35838 110.35838 110.67510
  21                  163.20334 108.27468 110.19910 110.19910 110.69989
  22                  166.25377 108.58936 110.04324 110.04324 110.71903
  23                  169.25738 108.90526 109.89126 109.89126 110.73300
  24                  172.20522 109.22106 109.74345 109.74345 110.74231
  25                  175.08870 109.53599 109.59963 109.59963 110.74759
  26                  177.90024 109.84933 109.46016 109.46016 110.74895
  27                  179.36674 110.16139 109.32411 109.32411 110.74727
  28                  176.71792 110.47259 109.19106 109.19106 110.74285
  29                  174.15905 110.78414 109.06022 109.06022 110.73608
  30                  171.69353 111.09773 108.93033 108.93033 110.72747
                          A7        A8        D1        D2        D3
   1                  110.10346 106.66747  -0.00002-121.71599 121.71595
   2                  110.09939 106.68142   0.00000-121.68193 121.68193
   3                  110.07708 106.74718   0.00000-121.52857 121.52857
   4                  110.00254 106.88717   0.00000-121.19884 121.19884
   5                  109.88548 107.05658   0.00000-120.79375 120.79375
   6                  109.75559 107.23135   0.00000-120.35446 120.35446
   7                  109.70153 107.36088   0.00000-119.99915 119.99915
   8                  109.74889 107.41483   0.00000-119.81033 119.81033
   9                  109.85137 107.41220   0.00000-119.76122 119.76122
  10                  109.96890 107.37917   0.00000-119.79599 119.79599
  11                  110.08420 107.33172   0.00000-119.87890 119.87890
  12                  110.19042 107.27736   0.00000-119.98886 119.98886
  13                  110.28564 107.22026   0.00000-120.11451 120.11451
  14                  110.36964 107.16247   0.00000-120.24893 120.24893
  15                  110.44290 107.10496   0.00000-120.38768 120.38768
  16                  110.50611 107.04836   0.00000-120.52820 120.52820
  17                  110.56015 106.99265   0.00000-120.66843 120.66843
  18                  110.60582 106.93782   0.00000-120.80718 120.80718
  19                  110.64388 106.88368   0.00000-120.94361 120.94361
  20                  110.67510 106.83000   0.00000-121.07713 121.07713
  21                  110.69989 106.77664   0.00000-121.20732 121.20732
  22                  110.71903 106.72336   0.00000-121.33395 121.33395
  23                  110.73300 106.67006   0.00000-121.45692 121.45692
  24                  110.74231 106.61664   0.00000-121.57623 121.57623
  25                  110.74759 106.56301   0.00000-121.69214 121.69214
  26                  110.74895 106.50906   0.00000-121.80462 121.80462
  27                  110.74727 106.45465   0.00000-121.91438 121.91438
  28                  110.74285 106.39954   0.00000-122.02187 122.02187
  29                  110.73608 106.34330   0.00000-122.12786 122.12786
  30                  110.72747 106.28558   0.00000-122.23328 122.23328
                          D4        D5        D6
   1                  179.99998  58.28401 -58.28405
   2                  180.00000  58.31807 -58.31807
   3                  180.00000  58.47143 -58.47143
   4                 -180.00000  58.80116 -58.80116
   5                  180.00000  59.20625 -59.20625
   6                  180.00000  59.64554 -59.64554
   7                  180.00000  60.00085 -60.00085
   8                 -180.00000  60.18967 -60.18967
   9                 -180.00000  60.23878 -60.23878
  10                  180.00000  60.20401 -60.20401
  11                  180.00000  60.12110 -60.12110
  12                  180.00000  60.01114 -60.01114
  13                  180.00000  59.88549 -59.88549
  14                  180.00000  59.75107 -59.75107
  15                  180.00000  59.61232 -59.61232
  16                  180.00000  59.47180 -59.47180
  17                  180.00000  59.33157 -59.33157
  18                  180.00000  59.19282 -59.19282
  19                  180.00000  59.05639 -59.05639
  20                  180.00000  58.92287 -58.92287
  21                  180.00000  58.79268 -58.79268
  22                  180.00000  58.66605 -58.66605
  23                  180.00000  58.54308 -58.54308
  24                  180.00000  58.42377 -58.42377
  25                  180.00000  58.30786 -58.30786
  26                  180.00000  58.19538 -58.19538
  27                    0.00000-121.91438 121.91438
  28                    0.00000-122.02187 122.02187
  29                    0.00000-122.12786 122.12786
  30                    0.00000-122.23328 122.23328
 --------------------------------------------------------------------------
 
 Total number of points:                   29
 Total number of gradient calculations:    59
 Total number of Hessian calculations:      6
 IRC-IRC-IRC-IRC-IRC-IRC-IRC-IRC-IRC-IRC-IRC-IRC-IRC-IRC-IRC-IRC-IRC-IRC
 Leave Link  123 at Sun Aug 22 16:07:02 2010, MaxMem=  786432000 cpu:       0.1
 (Enter /usr/local/bin/gaussian09-A.02/g09/l202.exe)
                          Input orientation:                          
 ---------------------------------------------------------------------
 Center     Atomic      Atomic             Coordinates (Angstroms)
 Number     Number       Type             X           Y           Z
 ---------------------------------------------------------------------
      1          6           0       -0.029306    0.434454    0.000000
      2          8           0       -1.166959    0.034233    0.000000
      3          6           0        1.189932   -0.445928    0.000000
      4          1           0        0.177310    1.527379    0.000000
      5          1           0        0.910420   -1.499358    0.000000
      6          1           0        1.803649   -0.219135    0.878842
      7          1           0        1.803649   -0.219135   -0.878842
 ---------------------------------------------------------------------
                    Distance matrix (angstroms):
                    1          2          3          4          5
     1  C    0.000000
     2  O    1.205998   0.000000
     3  C    1.503866   2.405304   0.000000
     4  H    1.112284   2.009115   2.217959   0.000000
     5  H    2.150049   2.582131   1.089881   3.114255   0.000000
     6  H    2.135244   3.108226   1.095649   2.543158   1.791422
     7  H    2.135244   3.108226   1.095649   2.543158   1.791422
                    6          7
     6  H    0.000000
     7  H    1.757684   0.000000
 Symmetry turned off by external request.
 Stoichiometry    C2H4O
 Framework group  C1[X(C2H4O)]
 Deg. of freedom    15
 Full point group                 C1      NOp   1
 Rotational constants (GHZ):     57.2175247     10.1334859      9.0909990
 Leave Link  202 at Sun Aug 22 16:07:02 2010, MaxMem=  786432000 cpu:       0.0
 (Enter /usr/local/bin/gaussian09-A.02/g09/l601.exe)
 Copying SCF densities to generalized density rwf, IOpCl= 0 IROHF=0.

 **********************************************************************

            Population analysis using the SCF density.

 **********************************************************************

 Alpha  occ. eigenvalues --  -19.13289 -10.27290 -10.18834  -1.06333  -0.76401
 Alpha  occ. eigenvalues --   -0.59063  -0.48996  -0.45571  -0.44891  -0.40927
 Alpha  occ. eigenvalues --   -0.37827  -0.26982
 Alpha virt. eigenvalues --   -0.04085  -0.01048   0.01174   0.02478   0.03816
 Alpha virt. eigenvalues --    0.05616   0.07167   0.08850   0.09133   0.09456
 Alpha virt. eigenvalues --    0.11345   0.12531   0.14080   0.16690   0.16996
 Alpha virt. eigenvalues --    0.18638   0.22666   0.25507   0.25629   0.28962
 Alpha virt. eigenvalues --    0.30515   0.31967   0.40058   0.42767   0.45798
 Alpha virt. eigenvalues --    0.51227   0.52131   0.52606   0.62438   0.62600
 Alpha virt. eigenvalues --    0.65320   0.65632   0.69520   0.83869   0.86082
 Alpha virt. eigenvalues --    0.95369   1.07433   1.08754   1.17392   1.18427
 Alpha virt. eigenvalues --    1.21374   1.42364   1.43736   1.44716   1.51159
 Alpha virt. eigenvalues --    1.53985   1.54186   1.54711   1.68149   1.72415
 Alpha virt. eigenvalues --    1.73603   1.88919   1.89981   2.05578   2.12099
 Alpha virt. eigenvalues --    2.20069   2.26537   2.42134   2.45387   2.49535
 Alpha virt. eigenvalues --    2.50010   2.53113   2.59799   2.68802   2.71428
 Alpha virt. eigenvalues --    2.84123   2.88920   2.89687   3.10233   3.33416
 Alpha virt. eigenvalues --    3.46773   3.48019   3.76316   3.81428   3.86587
 Alpha virt. eigenvalues --    4.12703   5.00358   5.11774   5.68263  23.84375
 Alpha virt. eigenvalues --   23.93690  49.93540
          Condensed to atoms (all electrons):
              1          2          3          4          5          6
     1  C    4.930160   0.461527   0.215815   0.346621  -0.035072  -0.037149
     2  O    0.461527   8.002000  -0.167196  -0.048414   0.015760  -0.000509
     3  C    0.215815  -0.167196   5.430051  -0.193047   0.380597   0.392018
     4  H    0.346621  -0.048414  -0.193047   0.788596   0.017105   0.001474
     5  H   -0.035072   0.015760   0.380597   0.017105   0.514564  -0.025643
     6  H   -0.037149  -0.000509   0.392018   0.001474  -0.025643   0.562679
     7  H   -0.037149  -0.000509   0.392018   0.001474  -0.025643  -0.049444
              7
     1  C   -0.037149
     2  O   -0.000509
     3  C    0.392018
     4  H    0.001474
     5  H   -0.025643
     6  H   -0.049444
     7  H    0.562679
 Mulliken atomic charges:
              1
     1  C    0.155246
     2  O   -0.262659
     3  C   -0.450256
     4  H    0.086191
     5  H    0.158331
     6  H    0.156573
     7  H    0.156573
 Sum of Mulliken atomic charges =   0.00000
 Mulliken charges with hydrogens summed into heavy atoms:
              1
     1  C    0.241437
     2  O   -0.262659
     3  C    0.021222
 Sum of Mulliken charges with hydrogens summed into heavy atoms =   0.00000
 APT atomic charges:
              1
     1  C   -0.102284
     2  O   -0.282700
     3  C   -0.997827
     4  H    0.285984
     5  H    0.310544
     6  H    0.393141
     7  H    0.393141
 Sum of APT charges=   0.00000
 APT Atomic charges with hydrogens summed into heavy atoms:
              1
     1  C    0.183700
     2  O   -0.282700
     3  C    0.099000
     4  H    0.000000
     5  H    0.000000
     6  H    0.000000
     7  H    0.000000
 Sum of APT charges=   0.00000
 Electronic spatial extent (au):  <R**2>=            168.6958
 Charge=              0.0000 electrons
 Dipole moment (field-independent basis, Debye):
    X=              2.9036    Y=              0.4773    Z=              0.0000  Tot=              2.9426
 Quadrupole moment (field-independent basis, Debye-Ang):
   XX=            -21.2143   YY=            -17.9629   ZZ=            -18.0827
   XY=             -0.1843   XZ=              0.0000   YZ=              0.0000
 Traceless Quadrupole moment (field-independent basis, Debye-Ang):
   XX=             -2.1277   YY=              1.1238   ZZ=              1.0039
   XY=             -0.1843   XZ=              0.0000   YZ=              0.0000
 Octapole moment (field-independent basis, Debye-Ang**2):
  XXX=             -3.8439  YYY=              0.5347  ZZZ=              0.0000  XYY=             -2.7564
  XXY=             -0.0628  XXZ=              0.0000  XZZ=             -2.1369  YZZ=              0.4316
  YYZ=              0.0000  XYZ=              0.0000
 Hexadecapole moment (field-independent basis, Debye-Ang**3):
 XXXX=           -148.5795 YYYY=            -49.7447 ZZZZ=            -24.5239 XXXY=             14.6718
 XXXZ=              0.0000 YYYX=             12.4601 YYYZ=              0.0000 ZZZX=              0.0000
 ZZZY=              0.0000 XXYY=            -34.7116 XXZZ=            -25.6649 YYZZ=            -13.7553
 XXYZ=              0.0000 YYXZ=              0.0000 ZZXY=              4.5906
 N-N= 6.968392765738D+01 E-N=-4.993105107594D+02  KE= 1.532693418759D+02
  Exact polarizability:   0.000   0.000   0.000   0.000   0.000   0.000
 Approx polarizability:  50.923   5.369  36.634   0.000   0.000  28.627
 No NMR shielding tensors so no spin-rotation constants.
 Leave Link  601 at Sun Aug 22 16:07:02 2010, MaxMem=  786432000 cpu:       0.8
 (Enter /usr/local/bin/gaussian09-A.02/g09/l716.exe)
 Dipole        = 1.14237550D+00 1.87801376D-01 4.25071730D-08
 Polarizability= 0.00000000D+00 0.00000000D+00 0.00000000D+00
                 0.00000000D+00 0.00000000D+00 0.00000000D+00
 -------------------------------------------------------------------
 Center     Atomic                   Forces (Hartrees/Bohr)
 Number     Number              X              Y              Z
 -------------------------------------------------------------------
      1        6          -0.000009814   -0.000062665   -0.000000004
      2        8          -0.000064755    0.000063505    0.000000001
      3        6           0.000055982   -0.000002857   -0.000000036
      4        1           0.000000572   -0.000006992    0.000000001
      5        1           0.000016870   -0.000004607   -0.000000001
      6        1           0.000000587    0.000006813   -0.000000479
      7        1           0.000000558    0.000006803    0.000000517
 -------------------------------------------------------------------
 Cartesian Forces:  Max     0.000064755 RMS     0.000027465
 Leave Link  716 at Sun Aug 22 16:07:02 2010, MaxMem=  786432000 cpu:       0.2
 (Enter /usr/local/bin/gaussian09-A.02/g09/l9999.exe)

 This type of calculation cannot be archived.


 The lyf so short, the craft so long to lerne.
                             -- Chaucer
 Job cpu time:  0 days  1 hours 10 minutes 42.4 seconds.
 File lengths (MBytes):  RWF=     12 Int=      0 D2E=      0 Chk=      3 Scr=      1
 Normal termination of Gaussian 09 at Sun Aug 22 16:07:02 2010.
