 Entering Gaussian System, Link 0=g09
 Input=anti_MeCOH_sing_IRCf_B3LYP_P_tight.com
 Output=anti_MeCOH_sing_IRCf_B3LYP_P_tight.log
 Initial command:
 /usr/local/bin/gaussian09-A.02/g09/l1.exe /scratch/gaussian/Gau-15443.inp -scrdir=/scratch/gaussian/
 Entering Link 1 = /usr/local/bin/gaussian09-A.02/g09/l1.exe PID=     15444.
  
 Copyright (c) 1988,1990,1992,1993,1995,1998,2003,2009, Gaussian, Inc.
                  All Rights Reserved.
  
 This is part of the Gaussian(R) 09 program.  It is based on
 the Gaussian(R) 03 system (copyright 2003, Gaussian, Inc.),
 the Gaussian(R) 98 system (copyright 1998, Gaussian, Inc.),
 the Gaussian(R) 94 system (copyright 1995, Gaussian, Inc.),
 the Gaussian 92(TM) system (copyright 1992, Gaussian, Inc.),
 the Gaussian 90(TM) system (copyright 1990, Gaussian, Inc.),
 the Gaussian 88(TM) system (copyright 1988, Gaussian, Inc.),
 the Gaussian 86(TM) system (copyright 1986, Carnegie Mellon
 University), and the Gaussian 82(TM) system (copyright 1983,
 Carnegie Mellon University). Gaussian is a federally registered
 trademark of Gaussian, Inc.
  
 This software contains proprietary and confidential information,
 including trade secrets, belonging to Gaussian, Inc.
  
 This software is provided under written license and may be
 used, copied, transmitted, or stored only in accord with that
 written license.
  
 The following legend is applicable only to US Government
 contracts under FAR:
  
                    RESTRICTED RIGHTS LEGEND
  
 Use, reproduction and disclosure by the US Government is
 subject to restrictions as set forth in subparagraphs (a)
 and (c) of the Commercial Computer Software - Restricted
 Rights clause in FAR 52.227-19.
  
 Gaussian, Inc.
 340 Quinnipiac St., Bldg. 40, Wallingford CT 06492
  
  
 ---------------------------------------------------------------
 Warning -- This program may not be used in any manner that
 competes with the business of Gaussian, Inc. or will provide
 assistance to any competitor of Gaussian, Inc.  The licensee
 of this program is prohibited from giving any competitor of
 Gaussian, Inc. access to this program.  By using this program,
 the user acknowledges that Gaussian, Inc. is engaged in the
 business of creating and licensing software in the field of
 computational chemistry and represents and warrants to the
 licensee that it is not a competitor of Gaussian, Inc. and that
 it will not use this program in any manner prohibited above.
 ---------------------------------------------------------------
  

 Cite this work as:
 Gaussian 09, Revision A.02,
 M. J. Frisch, G. W. Trucks, H. B. Schlegel, G. E. Scuseria, 
 M. A. Robb, J. R. Cheeseman, G. Scalmani, V. Barone, B. Mennucci, 
 G. A. Petersson, H. Nakatsuji, M. Caricato, X. Li, H. P. Hratchian, 
 A. F. Izmaylov, J. Bloino, G. Zheng, J. L. Sonnenberg, M. Hada, 
 M. Ehara, K. Toyota, R. Fukuda, J. Hasegawa, M. Ishida, T. Nakajima, 
 Y. Honda, O. Kitao, H. Nakai, T. Vreven, J. A. Montgomery, Jr., 
 J. E. Peralta, F. Ogliaro, M. Bearpark, J. J. Heyd, E. Brothers, 
 K. N. Kudin, V. N. Staroverov, R. Kobayashi, J. Normand, 
 K. Raghavachari, A. Rendell, J. C. Burant, S. S. Iyengar, J. Tomasi, 
 M. Cossi, N. Rega, J. M. Millam, M. Klene, J. E. Knox, J. B. Cross, 
 V. Bakken, C. Adamo, J. Jaramillo, R. Gomperts, R. E. Stratmann, 
 O. Yazyev, A. J. Austin, R. Cammi, C. Pomelli, J. W. Ochterski, 
 R. L. Martin, K. Morokuma, V. G. Zakrzewski, G. A. Voth, 
 P. Salvador, J. J. Dannenberg, S. Dapprich, A. D. Daniels, 
 O. Farkas, J. B. Foresman, J. V. Ortiz, J. Cioslowski, 
 and D. J. Fox, Gaussian, Inc., Wallingford CT, 2009.
 
 ******************************************
 Gaussian 09:  AM64L-G09RevA.02 11-Jun-2009
                22-Aug-2010 
 ******************************************
 %NProcShared=4
 Will use up to    4 processors via shared memory.
 %mem=6000MB
 ----------------------------------------------------------------------
 #p B3LYP/6-311++G** IRC=(CalcFC,Forward,Tight,MaxPoints=100,ReCalc=5,M
 axCycle=40,Report) Int=UltraFine
 ----------------------------------------------------------------------
 1/6=40,7=10,10=4,14=-1,18=20,22=1,26=3,38=1,42=100,44=3,71=5,129=111000/1,23;
 2/9=110,12=2,17=6,18=5,29=1,40=1/2;
 3/5=4,6=6,7=1111,11=2,16=1,25=1,30=1,71=2,74=-5,75=-5/1,2,3;
 4//1;
 5/5=2,38=5/2;
 8/6=4,10=90,11=11/1;
 11/6=1,8=1,9=11,15=111,16=1/1,2,10;
 10/6=1,7=6,13=1/2;
 6/7=2,8=2,9=2,10=2,28=1/1;
 7/10=1,18=20,25=1/1,2,3,16;
 1/6=40,7=10,10=4,14=-1,18=20,22=1,42=100,44=3,71=5,129=111000/23(3);
 2/9=110,29=1/2;
 7/9=1,25=1,44=-1/16;
 99//99;
 2/9=110,29=1/2;
 3/5=4,6=6,7=1111,11=2,16=1,25=1,30=1,71=2,74=-5,75=-5/1,2,3;
 4/5=5,16=3/1;
 5/5=2,38=5/2;
 8/6=4,10=90,11=11/1;
 11/6=1,8=1,9=11,15=111,16=1/1,2,10;
 10/6=1,7=6,13=1/2;
 7/10=1,18=20,25=1/1,2,3,16;
 1/6=40,7=10,14=-1,18=20,22=1,42=100,44=3,71=5,129=111000/23(-8);
 2/9=110,29=1/2;
 6/7=2,8=2,9=2,10=2,19=2,28=1/1;
 7/9=1,25=1,44=-1/16;
 99/9=1/99;
 Leave Link    1 at Sun Aug 22 16:07:02 2010, MaxMem=  786432000 cpu:       0.2
 (Enter /usr/local/bin/gaussian09-A.02/g09/l101.exe)
 --------------
 anti_MeCOH_TSd
 --------------
 Symbolic Z-matrix:
 Charge =  0 Multiplicity = 1
 6                     0.        0.52413   0. 
 8                    -1.22282   0.06433   0. 
 6                     1.10654  -0.46733   0. 
 1                    -1.05431   1.22339   0. 
 1                     0.71768  -1.49304   0. 
 1                     1.73997  -0.29288   0.87642 
 1                     1.73997  -0.29288  -0.87642 
 
 NAtoms=      7 NQM=      7 NQMF=      0 NMic=      0 NMicF=      0 NTot=      7.
                    Isotopes and Nuclear Properties:
 (Nuclear quadrupole moments (NQMom) in fm**2, nuclear magnetic moments (NMagM)
  in nuclear magnetons)

  Atom         1           2           3           4           5           6           7
 IAtWgt=          12          16          12           1           1           1           1
 AtmWgt=  12.0000000  15.9949146  12.0000000   1.0078250   1.0078250   1.0078250   1.0078250
 NucSpn=           0           0           0           1           1           1           1
 AtZEff=   0.0000000   0.0000000   0.0000000   0.0000000   0.0000000   0.0000000   0.0000000
 NQMom=    0.0000000   0.0000000   0.0000000   0.0000000   0.0000000   0.0000000   0.0000000
 NMagM=    0.0000000   0.0000000   0.0000000   2.7928460   2.7928460   2.7928460   2.7928460
 Leave Link  101 at Sun Aug 22 16:07:03 2010, MaxMem=  786432000 cpu:       0.5
 (Enter /usr/local/bin/gaussian09-A.02/g09/l123.exe)
 IRC-IRC-IRC-IRC-IRC-IRC-IRC-IRC-IRC-IRC-IRC-IRC-IRC-IRC-IRC-IRC-IRC-IRC
 ------------------------------------------------------------------------
 INPUT DATA FOR L123
 ------------------------------------------------------------------------
 GENERAL PARAMETERS:
 Rxn path following direction = Forward
 Maximum points per path      = 100
 Step size                    =   0.100 bohr
 Integration scheme           = HPC                                 
    Redo corrector integration= Yes                                 
    Max correction cycles     =  40
 Initial Hessian              = CalcFC
 Hessian evaluation           = Every   5 predictor steps
    Hessian updating method   = Bofill                              
 ------------------------------------------------------------------------
 IRC-IRC-IRC-IRC-IRC-IRC-IRC-IRC-IRC-IRC-IRC-IRC-IRC-IRC-IRC-IRC-IRC-IRC
 Leave Link  123 at Sun Aug 22 16:07:03 2010, MaxMem=  786432000 cpu:       0.0
 (Enter /usr/local/bin/gaussian09-A.02/g09/l202.exe)
                          Input orientation:                          
 ---------------------------------------------------------------------
 Center     Atomic      Atomic             Coordinates (Angstroms)
 Number     Number       Type             X           Y           Z
 ---------------------------------------------------------------------
      1          6           0        0.000000    0.524129    0.000000
      2          8           0       -1.222816    0.064329    0.000000
      3          6           0        1.106539   -0.467331    0.000000
      4          1           0       -1.054312    1.223390    0.000000
      5          1           0        0.717675   -1.493037    0.000000
      6          1           0        1.739966   -0.292884    0.876417
      7          1           0        1.739966   -0.292884   -0.876417
 ---------------------------------------------------------------------
                    Distance matrix (angstroms):
                    1          2          3          4          5
     1  C    0.000000
     2  O    1.306405   0.000000
     3  C    1.485739   2.389259   0.000000
     4  H    1.265124   1.171245   2.743686   0.000000
     5  H    2.141032   2.488151   1.096945   3.243287   0.000000
     6  H    2.112605   3.110271   1.095339   3.297754   1.803761
     7  H    2.112605   3.110271   1.095339   3.297754   1.803761
                    6          7
     6  H    0.000000
     7  H    1.752834   0.000000
 Symmetry turned off by external request.
 Stoichiometry    C2H4O
 Framework group  CS[SG(C2H2O),X(H2)]
 Deg. of freedom    10
 Full point group                 CS      NOp   2
 Rotational constants (GHZ):     59.7151295      9.9758930      9.0203207
 Leave Link  202 at Sun Aug 22 16:07:03 2010, MaxMem=  786432000 cpu:       0.0
 (Enter /usr/local/bin/gaussian09-A.02/g09/l301.exe)
 Standard basis: 6-311++G(d,p) (5D, 7F)
 Ernie: Thresh=  0.10000D-02 Tol=  0.10000D-05 Strict=F.
 Integral buffers will be    131072 words long.
 Raffenetti 2 integral format.
 Two-electron integral symmetry is turned off.
    94 basis functions,   144 primitive gaussians,    97 cartesian basis functions
    12 alpha electrons       12 beta electrons
       nuclear repulsion energy        69.1547395479 Hartrees.
 IExCor=  402 DFT=T Ex+Corr=B3LYP ExCW=0 ScaHFX=  0.200000
 ScaDFX=  0.800000  0.720000  1.000000  0.810000 ScalE2=  1.000000  1.000000
 IRadAn=      5 IRanWt=     -1 IRanGd=            0 ICorTp=0
 NAtoms=    7 NActive=    7 NUniq=    7 SFac= 7.50D-01 NAtFMM=   80 NAOKFM=F Big=F
 Leave Link  301 at Sun Aug 22 16:07:03 2010, MaxMem=  786432000 cpu:       0.3
 (Enter /usr/local/bin/gaussian09-A.02/g09/l302.exe)
 NPDir=0 NMtPBC=     1 NCelOv=     1 NCel=       1 NClECP=     1 NCelD=      1
         NCelK=      1 NCelE2=     1 NClLst=     1 CellRange=     0.0.
 One-electron integrals computed using PRISM.
 NBasis=    94 RedAO= T  NBF=    94
 NBsUse=    94 1.00D-06 NBFU=    94
 Precomputing XC quadrature grid using
 IXCGrd= 2 IRadAn=           5 IRanWt=          -1 IRanGd=           0 AccXCQ= 1.00D-10.
 NRdTot=     594 NPtTot=      159582 NUsed=      163844 NTot=      163876
 NSgBfM=    97    97    97    97    97 NAtAll=     7     7.
 Leave Link  302 at Sun Aug 22 16:07:03 2010, MaxMem=  786432000 cpu:       1.1
 (Enter /usr/local/bin/gaussian09-A.02/g09/l303.exe)
 DipDrv:  MaxL=1.
 Leave Link  303 at Sun Aug 22 16:07:03 2010, MaxMem=  786432000 cpu:       0.2
 (Enter /usr/local/bin/gaussian09-A.02/g09/l401.exe)
 Harris functional with IExCor=  402 diagonalized for initial guess.
 ExpMin= 3.60D-02 ExpMax= 8.59D+03 ExpMxC= 1.30D+03 IAcc=3 IRadAn=         5 AccDes= 0.00D+00
 HarFok:  IExCor=  402 AccDes= 0.00D+00 IRadAn=         5 IDoV= 1
 ScaDFX=  1.000000  1.000000  1.000000  1.000000
 FoFCou: FMM=F IPFlag=           0 FMFlag=      100000 FMFlg1=           0
         NFxFlg=           0 DoJE=T BraDBF=F KetDBF=T FulRan=T
         Omega=  0.000000  0.000000  1.000000  0.000000  0.000000 ICntrl=     500 IOpCl=  0
         NMat0=    1 NMatS0=    1 NMatT0=    0 NMatD0=    1 NMtDS0=    0 NMtDT0=    0
         I1Cent=           4 NGrid=           0.
 Symmetry not used in FoFCou.
 Harris En= -153.783627256781    
 Leave Link  401 at Sun Aug 22 16:07:04 2010, MaxMem=  786432000 cpu:       3.5
 (Enter /usr/local/bin/gaussian09-A.02/g09/l502.exe)
 Closed shell SCF:
 Requested convergence on RMS density matrix=1.00D-08 within 128 cycles.
 Requested convergence on MAX density matrix=1.00D-06.
 Requested convergence on             energy=1.00D-06.
 No special actions if energy rises.
 Using DIIS extrapolation, IDIIS=  1040.
 Two-electron integral symmetry not used.
       163768 words used for storage of precomputed grid.
 Keep R1 ints in memory in canonical form, NReq=12429260.
 IEnd=      211319 IEndB=      211319 NGot=   786432000 MDV=   774948919
 LenX=   774948919 LenY=   774939069
 Symmetry not used in FoFDir.
 MinBra= 0 MaxBra= 2 Meth= 1.
 IRaf=       0 NMat=   1 IRICut=       1 DoRegI=T DoRafI=F ISym2E= 0 JSym2E=0.

 Cycle   1  Pass 1  IDiag  1:
 E= -153.645866771112    
 DIIS: error= 3.92D-02 at cycle   1 NSaved=   1.
 NSaved= 1 IEnMin= 1 EnMin= -153.645866771112     IErMin= 1 ErrMin= 3.92D-02
 ErrMax= 3.92D-02 EMaxC= 1.00D-01 BMatC= 1.23D-01 BMatP= 1.23D-01
 IDIUse=3 WtCom= 6.08D-01 WtEn= 3.92D-01
 Coeff-Com:  0.100D+01
 Coeff-En:   0.100D+01
 Coeff:      0.100D+01
 Gap=     0.159 Goal=   None    Shift=    0.000
 GapD=    0.159 DampG=1.000 DampE=0.500 DampFc=0.5000 IDamp=-1.
 Damping current iteration by 5.00D-01
 RMSDP=8.03D-03 MaxDP=1.34D-01              OVMax= 1.78D-01

 Cycle   2  Pass 1  IDiag  1:
 E= -153.680918814191     Delta-E=       -0.035052043079 Rises=F Damp=T
 DIIS: error= 1.23D-02 at cycle   2 NSaved=   2.
 NSaved= 2 IEnMin= 2 EnMin= -153.680918814191     IErMin= 2 ErrMin= 1.23D-02
 ErrMax= 1.23D-02 EMaxC= 1.00D-01 BMatC= 1.29D-02 BMatP= 1.23D-01
 IDIUse=3 WtCom= 8.77D-01 WtEn= 1.23D-01
 Coeff-Com:  0.176D+00 0.824D+00
 Coeff-En:   0.286D+00 0.714D+00
 Coeff:      0.190D+00 0.810D+00
 Gap=     0.171 Goal=   None    Shift=    0.000
 RMSDP=2.11D-03 MaxDP=3.04D-02 DE=-3.51D-02 OVMax= 1.31D-01

 Cycle   3  Pass 1  IDiag  1:
 E= -153.730022031504     Delta-E=       -0.049103217313 Rises=F Damp=F
 DIIS: error= 2.18D-02 at cycle   3 NSaved=   3.
 NSaved= 3 IEnMin= 3 EnMin= -153.730022031504     IErMin= 2 ErrMin= 1.23D-02
 ErrMax= 2.18D-02 EMaxC= 1.00D-01 BMatC= 2.40D-02 BMatP= 1.29D-02
 IDIUse=2 WtCom= 0.00D+00 WtEn= 1.00D+00
 Coeff-En:   0.000D+00 0.000D+00 0.100D+01
 Coeff:      0.000D+00 0.000D+00 0.100D+01
 Gap=     0.159 Goal=   None    Shift=    0.000
 RMSDP=3.94D-03 MaxDP=5.18D-02 DE=-4.91D-02 OVMax= 2.02D-01

 Cycle   4  Pass 1  IDiag  1:
 E= -153.602358387972     Delta-E=        0.127663643532 Rises=F Damp=F
 DIIS: error= 5.96D-02 at cycle   4 NSaved=   4.
 NSaved= 4 IEnMin= 3 EnMin= -153.730022031504     IErMin= 2 ErrMin= 1.23D-02
 ErrMax= 5.96D-02 EMaxC= 1.00D-01 BMatC= 1.90D-01 BMatP= 1.29D-02
 IDIUse=2 WtCom= 0.00D+00 WtEn= 1.00D+00
 Coeff-En:   0.000D+00 0.000D+00 0.822D+00 0.178D+00
 Coeff:      0.000D+00 0.000D+00 0.822D+00 0.178D+00
 Gap=     0.164 Goal=   None    Shift=    0.000
 RMSDP=2.06D-03 MaxDP=2.75D-02 DE= 1.28D-01 OVMax= 1.05D-01

 Cycle   5  Pass 1  IDiag  1:
 E= -153.736257361132     Delta-E=       -0.133898973160 Rises=F Damp=F
 DIIS: error= 1.81D-02 at cycle   5 NSaved=   5.
 NSaved= 5 IEnMin= 5 EnMin= -153.736257361132     IErMin= 2 ErrMin= 1.23D-02
 ErrMax= 1.81D-02 EMaxC= 1.00D-01 BMatC= 1.70D-02 BMatP= 1.29D-02
 IDIUse=2 WtCom= 0.00D+00 WtEn= 1.00D+00
 Coeff-En:   0.000D+00 0.000D+00 0.433D+00 0.000D+00 0.567D+00
 Coeff:      0.000D+00 0.000D+00 0.433D+00 0.000D+00 0.567D+00
 Gap=     0.168 Goal=   None    Shift=    0.000
 RMSDP=9.91D-04 MaxDP=1.29D-02 DE=-1.34D-01 OVMax= 4.49D-02

 Cycle   6  Pass 1  IDiag  1:
 E= -153.749420049295     Delta-E=       -0.013162688163 Rises=F Damp=F
 DIIS: error= 2.38D-03 at cycle   6 NSaved=   6.
 NSaved= 6 IEnMin= 6 EnMin= -153.749420049295     IErMin= 6 ErrMin= 2.38D-03
 ErrMax= 2.38D-03 EMaxC= 1.00D-01 BMatC= 3.44D-04 BMatP= 1.29D-02
 IDIUse=3 WtCom= 9.76D-01 WtEn= 2.38D-02
 Coeff-Com: -0.111D-01 0.189D-01 0.795D-01-0.352D-01 0.281D+00 0.667D+00
 Coeff-En:   0.000D+00 0.000D+00 0.000D+00 0.000D+00 0.000D+00 0.100D+01
 Coeff:     -0.108D-01 0.184D-01 0.776D-01-0.344D-01 0.274D+00 0.675D+00
 Gap=     0.168 Goal=   None    Shift=    0.000
 RMSDP=1.40D-04 MaxDP=2.07D-03 DE=-1.32D-02 OVMax= 5.83D-03

 Cycle   7  Pass 1  IDiag  1:
 E= -153.749667079447     Delta-E=       -0.000247030152 Rises=F Damp=F
 DIIS: error= 2.54D-04 at cycle   7 NSaved=   7.
 NSaved= 7 IEnMin= 7 EnMin= -153.749667079447     IErMin= 7 ErrMin= 2.54D-04
 ErrMax= 2.54D-04 EMaxC= 1.00D-01 BMatC= 3.42D-06 BMatP= 3.44D-04
 IDIUse=3 WtCom= 9.97D-01 WtEn= 2.54D-03
 Coeff-Com: -0.241D-02 0.439D-02 0.155D-01-0.938D-02 0.606D-01 0.189D+00
 Coeff-Com:  0.742D+00
 Coeff-En:   0.000D+00 0.000D+00 0.000D+00 0.000D+00 0.000D+00 0.000D+00
 Coeff-En:   0.100D+01
 Coeff:     -0.241D-02 0.438D-02 0.155D-01-0.936D-02 0.604D-01 0.189D+00
 Coeff:      0.743D+00
 Gap=     0.168 Goal=   None    Shift=    0.000
 RMSDP=1.38D-05 MaxDP=2.20D-04 DE=-2.47D-04 OVMax= 5.16D-04

 Cycle   8  Pass 1  IDiag  1:
 E= -153.749669675546     Delta-E=       -0.000002596099 Rises=F Damp=F
 DIIS: error= 2.83D-05 at cycle   8 NSaved=   8.
 NSaved= 8 IEnMin= 8 EnMin= -153.749669675546     IErMin= 8 ErrMin= 2.83D-05
 ErrMax= 2.83D-05 EMaxC= 1.00D-01 BMatC= 4.88D-08 BMatP= 3.42D-06
 IDIUse=1 WtCom= 1.00D+00 WtEn= 0.00D+00
 Coeff-Com: -0.180D-03 0.249D-04-0.172D-02 0.718D-04-0.186D-02 0.393D-01
 Coeff-Com:  0.319D+00 0.645D+00
 Coeff:     -0.180D-03 0.249D-04-0.172D-02 0.718D-04-0.186D-02 0.393D-01
 Coeff:      0.319D+00 0.645D+00
 Gap=     0.168 Goal=   None    Shift=    0.000
 RMSDP=3.38D-06 MaxDP=6.21D-05 DE=-2.60D-06 OVMax= 7.97D-05

 Cycle   9  Pass 1  IDiag  1:
 E= -153.749669720354     Delta-E=       -0.000000044808 Rises=F Damp=F
 DIIS: error= 4.84D-06 at cycle   9 NSaved=   9.
 NSaved= 9 IEnMin= 9 EnMin= -153.749669720354     IErMin= 9 ErrMin= 4.84D-06
 ErrMax= 4.84D-06 EMaxC= 1.00D-01 BMatC= 1.40D-09 BMatP= 4.88D-08
 IDIUse=1 WtCom= 1.00D+00 WtEn= 0.00D+00
 Coeff-Com:  0.535D-04-0.991D-04-0.749D-03 0.189D-03-0.191D-02 0.698D-03
 Coeff-Com:  0.487D-01 0.157D+00 0.796D+00
 Coeff:      0.535D-04-0.991D-04-0.749D-03 0.189D-03-0.191D-02 0.698D-03
 Coeff:      0.487D-01 0.157D+00 0.796D+00
 Gap=     0.168 Goal=   None    Shift=    0.000
 RMSDP=6.36D-07 MaxDP=1.36D-05 DE=-4.48D-08 OVMax= 1.66D-05

 Cycle  10  Pass 1  IDiag  1:
 E= -153.749669721656     Delta-E=       -0.000000001302 Rises=F Damp=F
 DIIS: error= 1.09D-06 at cycle  10 NSaved=  10.
 NSaved=10 IEnMin=10 EnMin= -153.749669721656     IErMin=10 ErrMin= 1.09D-06
 ErrMax= 1.09D-06 EMaxC= 1.00D-01 BMatC= 6.65D-11 BMatP= 1.40D-09
 IDIUse=1 WtCom= 1.00D+00 WtEn= 0.00D+00
 Coeff-Com:  0.206D-04-0.325D-04-0.179D-03 0.844D-04-0.567D-03-0.202D-02
 Coeff-Com: -0.627D-02-0.344D-02 0.136D+00 0.876D+00
 Coeff:      0.206D-04-0.325D-04-0.179D-03 0.844D-04-0.567D-03-0.202D-02
 Coeff:     -0.627D-02-0.344D-02 0.136D+00 0.876D+00
 Gap=     0.168 Goal=   None    Shift=    0.000
 RMSDP=1.32D-07 MaxDP=2.36D-06 DE=-1.30D-09 OVMax= 4.99D-06

 Cycle  11  Pass 1  IDiag  1:
 E= -153.749669721724     Delta-E=       -0.000000000068 Rises=F Damp=F
 DIIS: error= 7.85D-08 at cycle  11 NSaved=  11.
 NSaved=11 IEnMin=11 EnMin= -153.749669721724     IErMin=11 ErrMin= 7.85D-08
 ErrMax= 7.85D-08 EMaxC= 1.00D-01 BMatC= 7.03D-13 BMatP= 6.65D-11
 IDIUse=1 WtCom= 1.00D+00 WtEn= 0.00D+00
 Coeff-Com: -0.134D-05 0.360D-05 0.225D-04-0.496D-05 0.436D-04-0.154D-03
 Coeff-Com: -0.171D-02-0.550D-02-0.272D-01 0.545D-02 0.103D+01
 Coeff:     -0.134D-05 0.360D-05 0.225D-04-0.496D-05 0.436D-04-0.154D-03
 Coeff:     -0.171D-02-0.550D-02-0.272D-01 0.545D-02 0.103D+01
 Gap=     0.168 Goal=   None    Shift=    0.000
 RMSDP=4.39D-08 MaxDP=9.55D-07 DE=-6.78D-11 OVMax= 9.53D-07

 Cycle  12  Pass 1  IDiag  1:
 E= -153.749669721724     Delta-E=       -0.000000000001 Rises=F Damp=F
 DIIS: error= 2.60D-08 at cycle  12 NSaved=  12.
 NSaved=12 IEnMin=12 EnMin= -153.749669721724     IErMin=12 ErrMin= 2.60D-08
 ErrMax= 2.60D-08 EMaxC= 1.00D-01 BMatC= 3.35D-14 BMatP= 7.03D-13
 IDIUse=1 WtCom= 1.00D+00 WtEn= 0.00D+00
 Coeff-Com: -0.139D-06 0.329D-06 0.445D-05-0.120D-05 0.819D-05 0.501D-05
 Coeff-Com: -0.447D-04-0.159D-03-0.327D-02-0.829D-02 0.756D-01 0.936D+00
 Coeff:     -0.139D-06 0.329D-06 0.445D-05-0.120D-05 0.819D-05 0.501D-05
 Coeff:     -0.447D-04-0.159D-03-0.327D-02-0.829D-02 0.756D-01 0.936D+00
 Gap=     0.168 Goal=   None    Shift=    0.000
 RMSDP=5.63D-09 MaxDP=1.29D-07 DE=-7.96D-13 OVMax= 6.94D-08

 SCF Done:  E(RB3LYP) =  -153.749669722     A.U. after   12 cycles
             Convg  =    0.5634D-08             -V/T =  2.0038
 KE= 1.531666031014D+02 PE=-4.978739582228D+02 EE= 1.218029458517D+02
 Leave Link  502 at Sun Aug 22 16:07:14 2010, MaxMem=  786432000 cpu:      41.5
 (Enter /usr/local/bin/gaussian09-A.02/g09/l801.exe)
 Range of M.O.s used for correlation:     1    94
 NBasis=    94 NAE=    12 NBE=    12 NFC=     0 NFV=     0
 NROrb=     94 NOA=    12 NOB=    12 NVA=    82 NVB=    82

 **** Warning!!: The largest alpha MO coefficient is  0.39808531D+02

 Leave Link  801 at Sun Aug 22 16:07:14 2010, MaxMem=  786432000 cpu:       0.2
 (Enter /usr/local/bin/gaussian09-A.02/g09/l1101.exe)
 Using compressed storage, NAtomX=     7.
 Will process   8 centers per pass.
 Leave Link 1101 at Sun Aug 22 16:07:15 2010, MaxMem=  786432000 cpu:       0.9
 (Enter /usr/local/bin/gaussian09-A.02/g09/l1102.exe)
 Symmetrizing basis deriv contribution to polar:
 IMax=3 JMax=2 DiffMx= 0.00D+00
 Leave Link 1102 at Sun Aug 22 16:07:15 2010, MaxMem=  786432000 cpu:       0.2
 (Enter /usr/local/bin/gaussian09-A.02/g09/l1110.exe)
 Forming Gx(P) for the SCF density, NAtomX=     7.
 Integral derivatives from FoFDir/FoFCou, PRISM(SPDF).
 Do as many integral derivatives as possible in FoFDir.
 G2DrvN: MDV=     786431840.
 G2DrvN: will do     8 centers at a time, making    1 passes doing MaxLOS=2.
 Calling FoFCou, ICntrl=  3107 FMM=F I1Cent=   0 AccDes= 0.00D+00.
 FoFCou: FMM=F IPFlag=           0 FMFlag=      100000 FMFlg1=           0
         NFxFlg=           0 DoJE=F BraDBF=F KetDBF=F FulRan=T
         Omega=  0.000000  0.000000  1.000000  0.000000  0.000000 ICntrl=    3107 IOpCl=  0
         NMat0=    1 NMatS0=    1 NMatT0=    0 NMatD0=    1 NMtDS0=    0 NMtDT0=    0
         I1Cent=           0 NGrid=           0.
 Symmetry not used in FoFCou.
 FoFDir/FoFCou used for L=0 through L=2.
 End of G2Drv Frequency-dependent properties file   721 does not exist.
 End of G2Drv Frequency-dependent properties file   722 does not exist.
 Leave Link 1110 at Sun Aug 22 16:07:37 2010, MaxMem=  786432000 cpu:      90.7
 (Enter /usr/local/bin/gaussian09-A.02/g09/l1002.exe)
 Minotr:  Closed shell wavefunction.
          IDoAtm=1111111
          Direct CPHF calculation.
          Differentiating once with respect to nuclear coordinates.
          Requested convergence is 1.0D-06 RMS, and 1.0D-05 maximum.
          Secondary convergence is 1.0D-12 RMS, and 1.0D-12 maximum.
          NewPWx=T KeepS1=F KeepF1=F KeepIn=T MapXYZ=F SortEE=F KeepMc=T.
          MDV=     786431926 using IRadAn=       1.
 Generate precomputed XC quadrature information.
          Keep R1 ints in memory in canonical form, NReq=12120910.
 Symmetry not used in FoFDir.
 MinBra= 0 MaxBra= 2 Meth= 1.
 IRaf=       0 NMat=   1 IRICut=       1 DoRegI=T DoRafI=F ISym2E= 0 JSym2E=0.
          Solving linear equations simultaneously, MaxMat=       0.
          There are    24 degrees of freedom in the 1st order CPHF.  IDoFFX=5.
     18 vectors produced by pass  0 Test12= 4.10D-11 4.17D-07 XBig12= 1.86D-01 2.37D-01.
 AX will form    18 AO Fock derivatives at one time.
     18 vectors produced by pass  1 Test12= 4.10D-11 4.17D-07 XBig12= 3.80D-02 8.72D-02.
     18 vectors produced by pass  2 Test12= 4.10D-11 4.17D-07 XBig12= 1.01D-04 2.50D-03.
     18 vectors produced by pass  3 Test12= 4.10D-11 4.17D-07 XBig12= 4.73D-07 1.49D-04.
     12 vectors produced by pass  4 Test12= 4.10D-11 4.17D-07 XBig12= 1.10D-09 6.51D-06.
 Inverted reduced A of dimension    84 with in-core refinement.
 End of Minotr Frequency-dependent properties file   721 does not exist.
 End of Minotr Frequency-dependent properties file   722 does not exist.
 Leave Link 1002 at Sun Aug 22 16:07:49 2010, MaxMem=  786432000 cpu:      48.5
 (Enter /usr/local/bin/gaussian09-A.02/g09/l601.exe)
 Copying SCF densities to generalized density rwf, IOpCl= 0 IROHF=0.

 **********************************************************************

            Population analysis using the SCF density.

 **********************************************************************

 Alpha  occ. eigenvalues --  -19.17287 -10.26371 -10.18607  -1.09610  -0.76192
 Alpha  occ. eigenvalues --   -0.56529  -0.52728  -0.45484  -0.45340  -0.39552
 Alpha  occ. eigenvalues --   -0.38686  -0.22734
 Alpha virt. eigenvalues --   -0.05919  -0.00610   0.00277   0.02892   0.03172
 Alpha virt. eigenvalues --    0.06434   0.06572   0.07906   0.08644   0.09419
 Alpha virt. eigenvalues --    0.09771   0.12087   0.13929   0.17047   0.17303
 Alpha virt. eigenvalues --    0.19027   0.21259   0.23078   0.23787   0.26767
 Alpha virt. eigenvalues --    0.29194   0.31860   0.35723   0.42609   0.44540
 Alpha virt. eigenvalues --    0.47316   0.53815   0.60773   0.62069   0.62721
 Alpha virt. eigenvalues --    0.63259   0.65842   0.69693   0.81028   0.88732
 Alpha virt. eigenvalues --    0.92555   0.96812   1.02577   1.06085   1.12719
 Alpha virt. eigenvalues --    1.25716   1.34475   1.41447   1.42175   1.52233
 Alpha virt. eigenvalues --    1.53354   1.54417   1.56489   1.59579   1.66539
 Alpha virt. eigenvalues --    1.76399   1.84092   1.91140   1.97483   2.03017
 Alpha virt. eigenvalues --    2.24877   2.27472   2.40516   2.49422   2.50857
 Alpha virt. eigenvalues --    2.53669   2.55423   2.57643   2.69795   2.73141
 Alpha virt. eigenvalues --    2.81485   2.88772   2.94583   3.10811   3.20255
 Alpha virt. eigenvalues --    3.25125   3.58689   3.63329   3.76152   3.84229
 Alpha virt. eigenvalues --    4.16244   4.94833   5.12092   5.54563  23.73013
 Alpha virt. eigenvalues --   23.94621  49.83299
          Condensed to atoms (all electrons):
              1          2          3          4          5          6
     1  C    6.111859  -0.159500   0.198676   0.089687  -0.008108  -0.050460
     2  O   -0.159500   8.229633  -0.138640   0.172785   0.007820  -0.000106
     3  C    0.198676  -0.138640   5.295955   0.019186   0.366892   0.415820
     4  H    0.089687   0.172785   0.019186   0.370549  -0.002213  -0.002451
     5  H   -0.008108   0.007820   0.366892  -0.002213   0.565536  -0.030220
     6  H   -0.050460  -0.000106   0.415820  -0.002451  -0.030220   0.537744
     7  H   -0.050460  -0.000106   0.415820  -0.002451  -0.030220  -0.036259
              7
     1  C   -0.050460
     2  O   -0.000106
     3  C    0.415820
     4  H   -0.002451
     5  H   -0.030220
     6  H   -0.036259
     7  H    0.537744
 Mulliken atomic charges:
              1
     1  C   -0.131694
     2  O   -0.111885
     3  C   -0.573708
     4  H    0.354908
     5  H    0.130514
     6  H    0.165932
     7  H    0.165932
 Sum of Mulliken atomic charges =   0.00000
 Mulliken charges with hydrogens summed into heavy atoms:
              1
     1  C   -0.131694
     2  O    0.243024
     3  C   -0.111330
 Sum of Mulliken charges with hydrogens summed into heavy atoms =   0.00000
 APT atomic charges:
              1
     1  C   -0.296781
     2  O   -0.159248
     3  C   -1.048501
     4  H    0.440546
     5  H    0.259660
     6  H    0.402162
     7  H    0.402162
 Sum of APT charges=   0.00000
 APT Atomic charges with hydrogens summed into heavy atoms:
              1
     1  C   -0.296781
     2  O    0.281298
     3  C    0.015483
     4  H    0.000000
     5  H    0.000000
     6  H    0.000000
     7  H    0.000000
 Sum of APT charges=   0.00000
 Electronic spatial extent (au):  <R**2>=            169.8019
 Charge=              0.0000 electrons
 Dipole moment (field-independent basis, Debye):
    X=              1.3447    Y=             -0.1512    Z=              0.0000  Tot=              1.3531
 Quadrupole moment (field-independent basis, Debye-Ang):
   XX=            -19.3768   YY=            -20.1294   ZZ=            -18.7740
   XY=             -2.6734   XZ=              0.0000   YZ=              0.0000
 Traceless Quadrupole moment (field-independent basis, Debye-Ang):
   XX=              0.0499   YY=             -0.7026   ZZ=              0.6527
   XY=             -2.6734   XZ=              0.0000   YZ=              0.0000
 Octapole moment (field-independent basis, Debye-Ang**2):
  XXX=              0.0263  YYY=             -4.0348  ZZZ=              0.0000  XYY=             -4.9609
  XXY=              2.1797  XXZ=              0.0000  XZZ=             -0.0898  YZZ=             -0.6029
  YYZ=              0.0000  XYZ=              0.0000
 Hexadecapole moment (field-independent basis, Debye-Ang**3):
 XXXX=           -143.0022 YYYY=            -63.4326 ZZZZ=            -26.6722 XXXY=             13.7221
 XXXZ=              0.0000 YYYX=             11.5162 YYYZ=              0.0000 ZZZX=              0.0000
 ZZZY=              0.0000 XXYY=            -32.0035 XXZZ=            -25.6549 YYZZ=            -15.7865
 XXYZ=              0.0000 YYXZ=              0.0000 ZZXY=              5.2575
 N-N= 6.915473954791D+01 E-N=-4.978739581545D+02  KE= 1.531666031014D+02
  Exact polarizability:   0.000   0.000   0.000   0.000   0.000   0.000
 Approx polarizability:  61.082   1.607  41.992   0.000   0.000  34.403
 No NMR shielding tensors so no spin-rotation constants.
 Leave Link  601 at Sun Aug 22 16:07:50 2010, MaxMem=  786432000 cpu:       0.8
 (Enter /usr/local/bin/gaussian09-A.02/g09/l701.exe)
 Compute integral second derivatives.
 ... and contract with generalized density number  0.
 Leave Link  701 at Sun Aug 22 16:07:50 2010, MaxMem=  786432000 cpu:       1.2
 (Enter /usr/local/bin/gaussian09-A.02/g09/l702.exe)
 L702 exits ... SP integral derivatives will be done elsewhere.
 Leave Link  702 at Sun Aug 22 16:07:50 2010, MaxMem=  786432000 cpu:       0.2
 (Enter /usr/local/bin/gaussian09-A.02/g09/l703.exe)
 Compute integral second derivatives, UseDBF=F ICtDFT=           0.
 Integral derivatives from FoFDir, PRISM(SPDF).
 Calling FoFJK, ICntrl=    100147 FMM=F ISym2X=0 I1Cent= 0 IOpClX= 0 NMat=1 NMatS=1 NMatT=0.
 FoFCou: FMM=F IPFlag=           0 FMFlag=      100000 FMFlg1=         800
         NFxFlg=           0 DoJE=F BraDBF=F KetDBF=F FulRan=T
         Omega=  0.000000  0.000000  1.000000  0.000000  0.000000 ICntrl=  100147 IOpCl=  0
         NMat0=    1 NMatS0=    1 NMatT0=    0 NMatD0=    1 NMtDS0=    0 NMtDT0=    0
         I1Cent=           0 NGrid=           0.
 Symmetry not used in FoFCou.
 Leave Link  703 at Sun Aug 22 16:08:20 2010, MaxMem=  786432000 cpu:     119.0
 (Enter /usr/local/bin/gaussian09-A.02/g09/l716.exe)
 Dipole        = 5.29036981D-01-5.94722412D-02 2.70976571D-14
 Polarizability= 0.00000000D+00 0.00000000D+00 0.00000000D+00
                 0.00000000D+00 0.00000000D+00 0.00000000D+00
 -------------------------------------------------------------------
 Center     Atomic                   Forces (Hartrees/Bohr)
 Number     Number              X              Y              Z
 -------------------------------------------------------------------
      1        6           0.000000371    0.000000104    0.000000000
      2        8          -0.000000378    0.000000027    0.000000000
      3        6           0.000000171   -0.000000275    0.000000000
      4        1          -0.000000026    0.000000037    0.000000000
      5        1          -0.000000136    0.000000073    0.000000000
      6        1          -0.000000001    0.000000018    0.000000107
      7        1          -0.000000001    0.000000018   -0.000000107
 -------------------------------------------------------------------
 Cartesian Forces:  Max     0.000000378 RMS     0.000000146
 Force constants in Cartesian coordinates: 
                1             2             3             4             5 
      1  0.442318D+00
      2  0.237982D-01  0.376008D+00
      3  0.000000D+00  0.000000D+00  0.615075D-01
      4 -0.388644D+00 -0.139777D+00  0.000000D+00  0.461762D+00
      5 -0.342300D+00 -0.102555D+00  0.000000D+00  0.157846D+00  0.973526D-01
      6  0.000000D+00  0.000000D+00 -0.201819D-02  0.000000D+00  0.000000D+00
      7 -0.945550D-01  0.423386D-01  0.000000D+00 -0.583146D-01  0.501321D-01
      8  0.107270D+00 -0.170854D+00  0.000000D+00 -0.983904D-02  0.469159D-01
      9  0.000000D+00  0.000000D+00 -0.488358D-01  0.000000D+00  0.000000D+00
     10  0.711019D-01  0.581354D-01  0.000000D+00 -0.153782D-01  0.134742D+00
     11  0.198115D+00 -0.792370D-01  0.000000D+00 -0.161175D-01 -0.513609D-01
     12  0.000000D+00  0.000000D+00 -0.166134D-01  0.000000D+00  0.000000D+00
     13  0.432450D-03  0.294289D-01  0.000000D+00  0.604015D-02 -0.124272D-01
     14  0.477868D-02 -0.349378D-01  0.000000D+00 -0.207910D-03  0.162505D-01
     15  0.000000D+00  0.000000D+00  0.420492D-02  0.000000D+00  0.000000D+00
     16 -0.153266D-01 -0.696193D-02 -0.159631D-01 -0.273289D-02  0.600336D-02
     17  0.416911D-02  0.578783D-02  0.158702D-01  0.404766D-02 -0.330163D-02
     18  0.145954D-02 -0.689251D-04  0.877484D-03  0.910781D-03  0.580921D-03
     19 -0.153266D-01 -0.696193D-02  0.159631D-01 -0.273289D-02  0.600336D-02
     20  0.416911D-02  0.578783D-02 -0.158702D-01  0.404766D-02 -0.330163D-02
     21 -0.145954D-02  0.689251D-04  0.877484D-03 -0.910781D-03 -0.580921D-03
                6             7             8             9            10 
      6  0.278841D-02
      7  0.000000D+00  0.507798D+00
      8  0.000000D+00  0.561767D-01  0.511181D+00
      9  0.938658D-02  0.000000D+00  0.000000D+00  0.493932D+00
     10  0.000000D+00 -0.207222D-01 -0.186797D-01  0.000000D+00 -0.371536D-01
     11  0.000000D+00 -0.170094D-01 -0.152126D-01  0.000000D+00 -0.169330D+00
     12 -0.275952D-02  0.000000D+00  0.000000D+00  0.771732D-02  0.000000D+00
     13  0.000000D+00 -0.820721D-01 -0.848421D-01  0.000000D+00  0.543578D-02
     14  0.000000D+00 -0.886878D-01 -0.264927D+00  0.000000D+00 -0.854583D-02
     15 -0.385042D-02  0.000000D+00  0.000000D+00 -0.487214D-01  0.000000D+00
     16  0.540909D-03 -0.126067D+00 -0.250427D-01 -0.129770D+00 -0.164179D-02
     17 -0.106010D-02 -0.214751D-01 -0.535518D-01 -0.299722D-01  0.183914D-02
     18 -0.177343D-02 -0.124706D+00 -0.334813D-01 -0.206739D+00  0.366697D-04
     19 -0.540909D-03 -0.126067D+00 -0.250427D-01  0.129770D+00 -0.164179D-02
     20  0.106010D-02 -0.214751D-01 -0.535518D-01  0.299722D-01  0.183914D-02
     21 -0.177343D-02  0.124706D+00  0.334813D-01 -0.206739D+00 -0.366697D-04
               11            12            13            14            15 
     11  0.146465D+00
     12  0.000000D+00  0.103286D-01
     13  0.624230D-02  0.000000D+00  0.819349D-01
     14 -0.431720D-02  0.000000D+00  0.930992D-01  0.291406D+00
     15  0.000000D+00  0.966384D-03  0.000000D+00  0.000000D+00  0.441493D-01
     16 -0.950394D-03  0.134161D-02 -0.588558D-02 -0.218146D-03 -0.735168D-02
     17  0.183146D-02 -0.803084D-03 -0.157506D-01 -0.173738D-02 -0.233679D-01
     18 -0.413849D-03  0.180329D-03  0.246534D-02  0.385023D-03  0.162561D-02
     19 -0.950394D-03 -0.134161D-02 -0.588558D-02 -0.218146D-03  0.735168D-02
     20  0.183146D-02  0.803084D-03 -0.157506D-01 -0.173738D-02  0.233679D-01
     21  0.413849D-03  0.180329D-03 -0.246534D-02 -0.385023D-03  0.162561D-02
               16            17            18            19            20 
     16  0.139804D+00
     17  0.253627D-01  0.509549D-01
     18  0.135518D+00  0.361656D-01  0.227730D+00
     19  0.118496D-01  0.180710D-02 -0.156841D-01  0.139804D+00
     20  0.180710D-02  0.166348D-04 -0.316746D-02  0.253627D-01  0.509549D-01
     21  0.156841D-01  0.316746D-02 -0.219009D-01 -0.135518D+00 -0.361656D-01
               21 
     21  0.227730D+00
 Force constants in internal coordinates: 
                1             2             3             4             5 
      1  0.490087D+00
      2  0.413423D-01  0.274222D+00
      3 -0.398502D-01  0.885519D-03  0.472350D-01
      4  0.341872D-01 -0.425572D-02  0.151781D+00 -0.106601D-01
      5  0.219149D-02  0.923095D-02 -0.707759D-02  0.709961D-02  0.326801D+00
      6 -0.123802D-04  0.563281D-02  0.107653D-02 -0.205885D-02  0.148535D-02
      7 -0.123802D-04  0.563281D-02  0.107653D-02 -0.205885D-02  0.148535D-02
      8  0.847297D-01  0.253658D-01  0.635183D-02 -0.387605D-01 -0.789587D-02
      9 -0.107392D-02  0.139859D-01  0.761355D-01 -0.813157D-01 -0.370300D-02
     10 -0.124875D-01  0.115291D-01 -0.151593D-01  0.246554D-01  0.401997D-02
     11  0.841789D-02  0.119447D-01  0.651704D-02 -0.105244D-01 -0.606471D-02
     12  0.841789D-02  0.119447D-01  0.651704D-02 -0.105244D-01 -0.606471D-02
     13  0.433362D-04 -0.100917D-01  0.279151D-02 -0.440647D-02  0.441214D-02
     14  0.433362D-04 -0.100917D-01  0.279151D-02 -0.440647D-02  0.441214D-02
     15 -0.368722D-02 -0.157523D-01 -0.267431D-02  0.391429D-02 -0.127731D-02
     16  0.000000D+00  0.000000D+00  0.000000D+00  0.000000D+00  0.000000D+00
     17  0.238682D-02 -0.286696D-02  0.195503D-02 -0.339763D-02 -0.405803D-02
     18 -0.238682D-02  0.286696D-02 -0.195503D-02  0.339763D-02  0.405803D-02
     19  0.000000D+00  0.000000D+00  0.000000D+00  0.000000D+00  0.000000D+00
     20  0.238682D-02 -0.286696D-02  0.195503D-02 -0.339763D-02 -0.405803D-02
     21 -0.238682D-02  0.286696D-02 -0.195503D-02  0.339763D-02  0.405803D-02
                6             7             8             9            10 
      6  0.333142D+00
      7  0.299544D-02  0.333142D+00
      8  0.361074D-02  0.361074D-02  0.116836D+00
      9  0.244842D-02  0.244842D-02  0.787209D-01  0.263035D-01
     10 -0.634694D-02 -0.634694D-02 -0.264616D-01 -0.927150D-02  0.956282D-01
     11  0.701061D-02 -0.721811D-02  0.140013D-01  0.596468D-02 -0.190079D-01
     12 -0.721811D-02  0.701061D-02  0.140013D-01  0.596468D-02 -0.190079D-01
     13  0.343216D-02 -0.107732D-02  0.380170D-02  0.120214D-02 -0.351903D-01
     14 -0.107732D-02  0.343216D-02  0.380170D-02  0.120214D-02 -0.351903D-01
     15  0.465725D-02  0.465725D-02 -0.778260D-02 -0.461978D-02  0.869954D-02
     16  0.414163D-02 -0.414163D-02  0.000000D+00  0.000000D+00  0.000000D+00
     17 -0.754740D-03  0.617887D-02  0.298929D-02  0.498104D-03 -0.516742D-02
     18 -0.617887D-02  0.754740D-03 -0.298929D-02 -0.498104D-03  0.516742D-02
     19  0.516349D-02 -0.516349D-02  0.000000D+00  0.000000D+00  0.000000D+00
     20  0.267127D-03  0.515700D-02  0.298929D-02  0.498104D-03 -0.516742D-02
     21 -0.515700D-02 -0.267127D-03 -0.298929D-02 -0.498104D-03  0.516742D-02
               11            12            13            14            15 
     11  0.895314D-01
     12 -0.592930D-02  0.895314D-01
     13 -0.351642D-01  0.657996D-02  0.518046D-01
     14  0.657996D-02 -0.351642D-01  0.687458D-02  0.518046D-01
     15 -0.346624D-01 -0.346624D-01  0.580976D-02  0.580976D-02  0.491837D-01
     16  0.668050D-02 -0.668050D-02  0.994076D-02 -0.994076D-02  0.000000D+00
     17  0.286961D-02  0.139338D-02 -0.849158D-02 -0.148837D-03  0.103835D-01
     18 -0.139338D-02 -0.286961D-02  0.148837D-03  0.849158D-02 -0.103835D-01
     19  0.422489D-02 -0.422489D-02  0.929900D-02 -0.929900D-02  0.000000D+00
     20  0.413999D-03  0.384899D-02 -0.913334D-02  0.492924D-03  0.103835D-01
     21 -0.384899D-02 -0.413999D-03 -0.492924D-03  0.913334D-02 -0.103835D-01
               16            17            18            19            20 
     16  0.144471D-01
     17 -0.249928D-02  0.956251D-02
     18 -0.249928D-02 -0.510116D-02  0.956251D-02
     19  0.110926D-01 -0.339866D-02 -0.339866D-02  0.982463D-02
     20 -0.585380D-02  0.866313D-02 -0.600054D-02 -0.466663D-02  0.985029D-02
     21 -0.585380D-02 -0.600054D-02  0.866313D-02 -0.466663D-02 -0.481337D-02
               21 
     21  0.985029D-02
 Leave Link  716 at Sun Aug 22 16:08:20 2010, MaxMem=  786432000 cpu:       0.2
 (Enter /usr/local/bin/gaussian09-A.02/g09/l123.exe)
 IRC-IRC-IRC-IRC-IRC-IRC-IRC-IRC-IRC-IRC-IRC-IRC-IRC-IRC-IRC-IRC-IRC-IRC
          ******** Start new reaction path calculation ********
 Current Structure is TS -> diagonalize the Hessian.
 Supplied step size of   0.1000 bohr.
    Integration on MW PES will use step size of   0.1053 sqrt(amu)*bohr.
 Point Number:   0          Path Number:   1
 Calculating another point on the path.
 Point Number  1 in FORWARD path direction.
 Using LQA Reaction Path Following.
 IRC-IRC-IRC-IRC-IRC-IRC-IRC-IRC-IRC-IRC-IRC-IRC-IRC-IRC-IRC-IRC-IRC-IRC
 Leave Link  123 at Sun Aug 22 16:08:20 2010, MaxMem=  786432000 cpu:       0.0
 (Enter /usr/local/bin/gaussian09-A.02/g09/l202.exe)
                          Input orientation:                          
 ---------------------------------------------------------------------
 Center     Atomic      Atomic             Coordinates (Angstroms)
 Number     Number       Type             X           Y           Z
 ---------------------------------------------------------------------
      1          6           0        0.074821    0.504985    0.000000
      2          8           0       -1.152103    0.047461    0.000000
      3          6           0        1.176719   -0.487513    0.000000
      4          1           0       -1.028437    1.176632    0.000000
      5          1           0        0.790694   -1.514670    0.000000
      6          1           0        1.810296   -0.311611    0.876193
      7          1           0        1.810296   -0.311611   -0.876193
 ---------------------------------------------------------------------
                    Distance matrix (angstroms):
                    1          2          3          4          5
     1  C    0.000000
     2  O    1.309454   0.000000
     3  C    1.482981   2.389479   0.000000
     4  H    1.291622   1.135924   2.762624   0.000000
     5  H    2.142774   2.492933   1.097299   3.248438   0.000000
     6  H    2.108653   3.110057   1.095480   3.322798   1.804065
     7  H    2.108653   3.110057   1.095480   3.322798   1.804065
                    6          7
     6  H    0.000000
     7  H    1.752386   0.000000
 Symmetry turned off by external request.
 Stoichiometry    C2H4O
 Framework group  CS[SG(C2H2O),X(H2)]
 Deg. of freedom    10
 Full point group                 CS      NOp   2
 Rotational constants (GHZ):     60.1791500      9.9554758      9.0138493
 Leave Link  202 at Sun Aug 22 16:08:20 2010, MaxMem=  786432000 cpu:       0.0
 (Enter /usr/local/bin/gaussian09-A.02/g09/l301.exe)
 Standard basis: 6-311++G(d,p) (5D, 7F)
 Ernie: Thresh=  0.10000D-02 Tol=  0.10000D-05 Strict=F.
 Integral buffers will be    131072 words long.
 Raffenetti 2 integral format.
 Two-electron integral symmetry is turned off.
    94 basis functions,   144 primitive gaussians,    97 cartesian basis functions
    12 alpha electrons       12 beta electrons
       nuclear repulsion energy        69.1822917978 Hartrees.
 IExCor=  402 DFT=T Ex+Corr=B3LYP ExCW=0 ScaHFX=  0.200000
 ScaDFX=  0.800000  0.720000  1.000000  0.810000 ScalE2=  1.000000  1.000000
 IRadAn=      5 IRanWt=     -1 IRanGd=            0 ICorTp=0
 NAtoms=    7 NActive=    7 NUniq=    7 SFac= 7.50D-01 NAtFMM=   80 NAOKFM=F Big=F
 Leave Link  301 at Sun Aug 22 16:08:20 2010, MaxMem=  786432000 cpu:       0.3
 (Enter /usr/local/bin/gaussian09-A.02/g09/l302.exe)
 NPDir=0 NMtPBC=     1 NCelOv=     1 NCel=       1 NClECP=     1 NCelD=      1
         NCelK=      1 NCelE2=     1 NClLst=     1 CellRange=     0.0.
 One-electron integrals computed using PRISM.
 NBasis=    94 RedAO= T  NBF=    94
 NBsUse=    94 1.00D-06 NBFU=    94
 Precomputing XC quadrature grid using
 IXCGrd= 2 IRadAn=           5 IRanWt=          -1 IRanGd=           0 AccXCQ= 1.00D-10.
 NRdTot=     594 NPtTot=      159582 NUsed=      163844 NTot=      163876
 NSgBfM=    97    97    97    97    97 NAtAll=     7     7.
 Leave Link  302 at Sun Aug 22 16:08:20 2010, MaxMem=  786432000 cpu:       1.1
 (Enter /usr/local/bin/gaussian09-A.02/g09/l303.exe)
 DipDrv:  MaxL=1.
 Leave Link  303 at Sun Aug 22 16:08:20 2010, MaxMem=  786432000 cpu:       0.2
 (Enter /usr/local/bin/gaussian09-A.02/g09/l401.exe)
 Initial guess read from the read-write file.
 B after Tr=     0.000000    0.000000    0.000000
         Rot=    1.000000    0.000000    0.000000    0.000000 Ang=   0.00 deg.
 Guess basis will be translated and rotated to current coordinates.
 Generating alternative initial guess.
 Harris functional with IExCor=  402 diagonalized for initial guess.
 ExpMin= 3.60D-02 ExpMax= 8.59D+03 ExpMxC= 1.30D+03 IAcc=3 IRadAn=         5 AccDes= 0.00D+00
 HarFok:  IExCor=  402 AccDes= 0.00D+00 IRadAn=         5 IDoV= 1
 ScaDFX=  1.000000  1.000000  1.000000  1.000000
 FoFCou: FMM=F IPFlag=           0 FMFlag=      100000 FMFlg1=           0
         NFxFlg=           0 DoJE=T BraDBF=F KetDBF=T FulRan=T
         Omega=  0.000000  0.000000  1.000000  0.000000  0.000000 ICntrl=     500 IOpCl=  0
         NMat0=    1 NMatS0=    1 NMatT0=    0 NMatD0=    1 NMtDS0=    0 NMtDT0=    0
         I1Cent=           4 NGrid=           0.
 Symmetry not used in FoFCou.
 Harris En= -153.784240645758    
 Leave Link  401 at Sun Aug 22 16:08:21 2010, MaxMem=  786432000 cpu:       3.7
 (Enter /usr/local/bin/gaussian09-A.02/g09/l502.exe)
 Closed shell SCF:
 Requested convergence on RMS density matrix=1.00D-08 within 128 cycles.
 Requested convergence on MAX density matrix=1.00D-06.
 Requested convergence on             energy=1.00D-06.
 No special actions if energy rises.
 Using DIIS extrapolation, IDIIS=  1040.
 Two-electron integral symmetry not used.
       163768 words used for storage of precomputed grid.
 Keep R1 ints in memory in canonical form, NReq=12429260.
 IEnd=      211319 IEndB=      211319 NGot=   786432000 MDV=   774948919
 LenX=   774948919 LenY=   774939069
 Symmetry not used in FoFDir.
 MinBra= 0 MaxBra= 2 Meth= 1.
 IRaf=       0 NMat=   1 IRICut=       1 DoRegI=T DoRafI=F ISym2E= 0 JSym2E=0.

 Cycle   1  Pass 1  IDiag  1:
 E= -153.749144409181    
 DIIS: error= 2.53D-03 at cycle   1 NSaved=   1.
 NSaved= 1 IEnMin= 1 EnMin= -153.749144409181     IErMin= 1 ErrMin= 2.53D-03
 ErrMax= 2.53D-03 EMaxC= 1.00D-01 BMatC= 8.11D-04 BMatP= 8.11D-04
 IDIUse=3 WtCom= 9.75D-01 WtEn= 2.53D-02
 Coeff-Com:  0.100D+01
 Coeff-En:   0.100D+01
 Coeff:      0.100D+01
 Gap=     0.167 Goal=   None    Shift=    0.000
 GapD=    0.167 DampG=1.000 DampE=1.000 DampFc=1.0000 IDamp=-1.
 RMSDP=7.14D-04 MaxDP=1.34D-02              OVMax= 2.27D-02

 Cycle   2  Pass 1  IDiag  1:
 E= -153.750283400027     Delta-E=       -0.001138990845 Rises=F Damp=F
 DIIS: error= 1.85D-03 at cycle   2 NSaved=   2.
 NSaved= 2 IEnMin= 2 EnMin= -153.750283400027     IErMin= 2 ErrMin= 1.85D-03
 ErrMax= 1.85D-03 EMaxC= 1.00D-01 BMatC= 2.78D-04 BMatP= 8.11D-04
 IDIUse=3 WtCom= 9.81D-01 WtEn= 1.85D-02
 Coeff-Com:  0.291D+00 0.709D+00
 Coeff-En:   0.000D+00 0.100D+01
 Coeff:      0.285D+00 0.715D+00
 Gap=     0.166 Goal=   None    Shift=    0.000
 RMSDP=3.00D-04 MaxDP=4.33D-03 DE=-1.14D-03 OVMax= 1.26D-02

 Cycle   3  Pass 1  IDiag  1:
 E= -153.750057962352     Delta-E=        0.000225437675 Rises=F Damp=F
 DIIS: error= 3.24D-03 at cycle   3 NSaved=   3.
 NSaved= 3 IEnMin= 2 EnMin= -153.750283400027     IErMin= 2 ErrMin= 1.85D-03
 ErrMax= 3.24D-03 EMaxC= 1.00D-01 BMatC= 5.99D-04 BMatP= 2.78D-04
 IDIUse=3 WtCom= 1.49D-01 WtEn= 8.51D-01
 Coeff-Com: -0.444D-01 0.615D+00 0.430D+00
 Coeff-En:   0.000D+00 0.631D+00 0.369D+00
 Coeff:     -0.663D-02 0.629D+00 0.378D+00
 Gap=     0.166 Goal=   None    Shift=    0.000
 RMSDP=1.46D-04 MaxDP=2.21D-03 DE= 2.25D-04 OVMax= 7.36D-03

 Cycle   4  Pass 1  IDiag  1:
 E= -153.750499935727     Delta-E=       -0.000441973375 Rises=F Damp=F
 DIIS: error= 2.88D-04 at cycle   4 NSaved=   4.
 NSaved= 4 IEnMin= 4 EnMin= -153.750499935727     IErMin= 4 ErrMin= 2.88D-04
 ErrMax= 2.88D-04 EMaxC= 1.00D-01 BMatC= 5.29D-06 BMatP= 2.78D-04
 IDIUse=3 WtCom= 9.97D-01 WtEn= 2.88D-03
 Coeff-Com: -0.171D-01 0.151D+00 0.370D-01 0.829D+00
 Coeff-En:   0.000D+00 0.000D+00 0.000D+00 0.100D+01
 Coeff:     -0.171D-01 0.151D+00 0.369D-01 0.829D+00
 Gap=     0.167 Goal=   None    Shift=    0.000
 RMSDP=3.12D-05 MaxDP=7.07D-04 DE=-4.42D-04 OVMax= 8.02D-04

 Cycle   5  Pass 1  IDiag  1:
 E= -153.750503833769     Delta-E=       -0.000003898043 Rises=F Damp=F
 DIIS: error= 7.80D-05 at cycle   5 NSaved=   5.
 NSaved= 5 IEnMin= 5 EnMin= -153.750503833769     IErMin= 5 ErrMin= 7.80D-05
 ErrMax= 7.80D-05 EMaxC= 1.00D-01 BMatC= 4.94D-07 BMatP= 5.29D-06
 IDIUse=1 WtCom= 1.00D+00 WtEn= 0.00D+00
 Coeff-Com: -0.285D-02-0.672D-02-0.406D-01 0.414D+00 0.636D+00
 Coeff:     -0.285D-02-0.672D-02-0.406D-01 0.414D+00 0.636D+00
 Gap=     0.167 Goal=   None    Shift=    0.000
 RMSDP=8.84D-06 MaxDP=1.75D-04 DE=-3.90D-06 OVMax= 2.48D-04

 Cycle   6  Pass 1  IDiag  1:
 E= -153.750504334806     Delta-E=       -0.000000501036 Rises=F Damp=F
 DIIS: error= 2.28D-05 at cycle   6 NSaved=   6.
 NSaved= 6 IEnMin= 6 EnMin= -153.750504334806     IErMin= 6 ErrMin= 2.28D-05
 ErrMax= 2.28D-05 EMaxC= 1.00D-01 BMatC= 2.44D-08 BMatP= 4.94D-07
 IDIUse=1 WtCom= 1.00D+00 WtEn= 0.00D+00
 Coeff-Com:  0.960D-03-0.164D-01-0.185D-01 0.287D-01 0.136D+00 0.869D+00
 Coeff:      0.960D-03-0.164D-01-0.185D-01 0.287D-01 0.136D+00 0.869D+00
 Gap=     0.167 Goal=   None    Shift=    0.000
 RMSDP=5.33D-06 MaxDP=1.31D-04 DE=-5.01D-07 OVMax= 8.10D-05

 Cycle   7  Pass 1  IDiag  1:
 E= -153.750504361049     Delta-E=       -0.000000026243 Rises=F Damp=F
 DIIS: error= 2.30D-06 at cycle   7 NSaved=   7.
 NSaved= 7 IEnMin= 7 EnMin= -153.750504361049     IErMin= 7 ErrMin= 2.30D-06
 ErrMax= 2.30D-06 EMaxC= 1.00D-01 BMatC= 5.14D-10 BMatP= 2.44D-08
 IDIUse=1 WtCom= 1.00D+00 WtEn= 0.00D+00
 Coeff-Com:  0.345D-03-0.439D-02-0.454D-02-0.186D-02 0.227D-01 0.266D+00
 Coeff-Com:  0.722D+00
 Coeff:      0.345D-03-0.439D-02-0.454D-02-0.186D-02 0.227D-01 0.266D+00
 Coeff:      0.722D+00
 Gap=     0.167 Goal=   None    Shift=    0.000
 RMSDP=4.07D-07 MaxDP=6.47D-06 DE=-2.62D-08 OVMax= 1.39D-05

 Cycle   8  Pass 1  IDiag  1:
 E= -153.750504361564     Delta-E=       -0.000000000515 Rises=F Damp=F
 DIIS: error= 8.57D-07 at cycle   8 NSaved=   8.
 NSaved= 8 IEnMin= 8 EnMin= -153.750504361564     IErMin= 8 ErrMin= 8.57D-07
 ErrMax= 8.57D-07 EMaxC= 1.00D-01 BMatC= 5.70D-11 BMatP= 5.14D-10
 IDIUse=1 WtCom= 1.00D+00 WtEn= 0.00D+00
 Coeff-Com:  0.874D-04-0.967D-03-0.928D-03-0.206D-02 0.237D-02 0.601D-01
 Coeff-Com:  0.300D+00 0.641D+00
 Coeff:      0.874D-04-0.967D-03-0.928D-03-0.206D-02 0.237D-02 0.601D-01
 Coeff:      0.300D+00 0.641D+00
 Gap=     0.167 Goal=   None    Shift=    0.000
 RMSDP=2.50D-07 MaxDP=6.18D-06 DE=-5.15D-10 OVMax= 3.15D-06

 Cycle   9  Pass 1  IDiag  1:
 E= -153.750504361621     Delta-E=       -0.000000000057 Rises=F Damp=F
 DIIS: error= 2.25D-07 at cycle   9 NSaved=   9.
 NSaved= 9 IEnMin= 9 EnMin= -153.750504361621     IErMin= 9 ErrMin= 2.25D-07
 ErrMax= 2.25D-07 EMaxC= 1.00D-01 BMatC= 3.87D-12 BMatP= 5.70D-11
 IDIUse=1 WtCom= 1.00D+00 WtEn= 0.00D+00
 Coeff-Com: -0.702D-05 0.186D-03 0.248D-03-0.649D-03-0.202D-02-0.113D-01
 Coeff-Com:  0.268D-01 0.224D+00 0.763D+00
 Coeff:     -0.702D-05 0.186D-03 0.248D-03-0.649D-03-0.202D-02-0.113D-01
 Coeff:      0.268D-01 0.224D+00 0.763D+00
 Gap=     0.167 Goal=   None    Shift=    0.000
 RMSDP=6.22D-08 MaxDP=1.29D-06 DE=-5.69D-11 OVMax= 1.29D-06

 Cycle  10  Pass 1  IDiag  1:
 E= -153.750504361625     Delta-E=       -0.000000000004 Rises=F Damp=F
 DIIS: error= 1.99D-08 at cycle  10 NSaved=  10.
 NSaved=10 IEnMin=10 EnMin= -153.750504361625     IErMin=10 ErrMin= 1.99D-08
 ErrMax= 1.99D-08 EMaxC= 1.00D-01 BMatC= 3.65D-14 BMatP= 3.87D-12
 IDIUse=1 WtCom= 1.00D+00 WtEn= 0.00D+00
 Coeff-Com: -0.271D-05 0.488D-04 0.664D-04-0.116D-03-0.449D-03-0.313D-02
 Coeff-Com: -0.120D-03 0.264D-01 0.147D+00 0.830D+00
 Coeff:     -0.271D-05 0.488D-04 0.664D-04-0.116D-03-0.449D-03-0.313D-02
 Coeff:     -0.120D-03 0.264D-01 0.147D+00 0.830D+00
 Gap=     0.167 Goal=   None    Shift=    0.000
 RMSDP=8.40D-09 MaxDP=1.64D-07 DE=-4.35D-12 OVMax= 1.22D-07

 SCF Done:  E(RB3LYP) =  -153.750504362     A.U. after   10 cycles
             Convg  =    0.8399D-08             -V/T =  2.0037
 KE= 1.531790914514D+02 PE=-4.979087397049D+02 EE= 1.217968520941D+02
 Leave Link  502 at Sun Aug 22 16:08:30 2010, MaxMem=  786432000 cpu:      34.6
 (Enter /usr/local/bin/gaussian09-A.02/g09/l801.exe)
 Range of M.O.s used for correlation:     1    94
 NBasis=    94 NAE=    12 NBE=    12 NFC=     0 NFV=     0
 NROrb=     94 NOA=    12 NOB=    12 NVA=    82 NVB=    82

 **** Warning!!: The largest alpha MO coefficient is  0.38359513D+02

 Leave Link  801 at Sun Aug 22 16:08:30 2010, MaxMem=  786432000 cpu:       0.2
 (Enter /usr/local/bin/gaussian09-A.02/g09/l1101.exe)
 Leave Link 1101 at Sun Aug 22 16:08:30 2010, MaxMem=  786432000 cpu:       0.2
 (Enter /usr/local/bin/gaussian09-A.02/g09/l1102.exe)
 Symmetrizing basis deriv contribution to polar:
 IMax=3 JMax=2 DiffMx= 0.00D+00
 Leave Link 1102 at Sun Aug 22 16:08:30 2010, MaxMem=  786432000 cpu:       0.2
 (Enter /usr/local/bin/gaussian09-A.02/g09/l1110.exe)
 Leave Link 1110 at Sun Aug 22 16:08:30 2010, MaxMem=  786432000 cpu:       0.2
 (Enter /usr/local/bin/gaussian09-A.02/g09/l1002.exe)
 Minotr:  Closed shell wavefunction.
 Leave Link 1002 at Sun Aug 22 16:08:30 2010, MaxMem=  786432000 cpu:       0.2
 (Enter /usr/local/bin/gaussian09-A.02/g09/l701.exe)
 Compute integral first derivatives.
 ... and contract with generalized density number  0.
 Leave Link  701 at Sun Aug 22 16:08:30 2010, MaxMem=  786432000 cpu:       0.8
 (Enter /usr/local/bin/gaussian09-A.02/g09/l702.exe)
 L702 exits ... SP integral derivatives will be done elsewhere.
 Leave Link  702 at Sun Aug 22 16:08:31 2010, MaxMem=  786432000 cpu:       0.2
 (Enter /usr/local/bin/gaussian09-A.02/g09/l703.exe)
 Compute integral first derivatives, UseDBF=F ICtDFT=           0.
 Integral derivatives from FoFDir, PRISM(SPDF).
 Calling FoFJK, ICntrl=      2147 FMM=F ISym2X=0 I1Cent= 0 IOpClX= 0 NMat=1 NMatS=1 NMatT=0.
 FoFCou: FMM=F IPFlag=           0 FMFlag=      100000 FMFlg1=         800
         NFxFlg=           0 DoJE=F BraDBF=F KetDBF=F FulRan=T
         Omega=  0.000000  0.000000  1.000000  0.000000  0.000000 ICntrl=    2147 IOpCl=  0
         NMat0=    1 NMatS0=    1 NMatT0=    0 NMatD0=    1 NMtDS0=    0 NMtDT0=    0
         I1Cent=           0 NGrid=           0.
 Symmetry not used in FoFCou.
 Leave Link  703 at Sun Aug 22 16:08:33 2010, MaxMem=  786432000 cpu:      10.5
 (Enter /usr/local/bin/gaussian09-A.02/g09/l716.exe)
 Dipole        = 4.51810943D-01-9.23449553D-02-5.48694423D-12
 Polarizability= 0.00000000D+00 0.00000000D+00 0.00000000D+00
                 0.00000000D+00 0.00000000D+00 0.00000000D+00
 -------------------------------------------------------------------
 Center     Atomic                   Forces (Hartrees/Bohr)
 Number     Number              X              Y              Z
 -------------------------------------------------------------------
      1        6           0.013546812    0.000331094    0.000000000
      2        8           0.000468153    0.010697538    0.000000000
      3        6          -0.001763929   -0.003155044    0.000000000
      4        1          -0.012737762   -0.007517267    0.000000000
      5        1           0.000693905   -0.000662028    0.000000000
      6        1          -0.000103589    0.000152853   -0.000070519
      7        1          -0.000103589    0.000152853    0.000070519
 -------------------------------------------------------------------
 Cartesian Forces:  Max     0.013546812 RMS     0.005028991
 Leave Link  716 at Sun Aug 22 16:08:33 2010, MaxMem=  786432000 cpu:       0.2
 (Enter /usr/local/bin/gaussian09-A.02/g09/l123.exe)
 IRC-IRC-IRC-IRC-IRC-IRC-IRC-IRC-IRC-IRC-IRC-IRC-IRC-IRC-IRC-IRC-IRC-IRC
 Pt  1 Step number   1 out of a maximum of  40
 Using modified Bulirsch-Stoer corrector interation.
   Using distance weighted interpolants to fit PES.
    Cycle     1 NS=     2
    Cycle     2 NS=     4 Truncation Error =  0.010720204
    Cycle     3 NS=     6 Truncation Error =  0.000004874
    Cycle     4 NS=     8 Truncation Error =  0.000000905
    Cycle     5 NS=    12 Truncation Error =  0.000000071
    Cycle     6 NS=    16 Truncation Error =  0.000000003
 BS completed in    6 cycles and      48 integration steps.
 SUMMARY OF CORRECTOR INTEGRATION:
   Original End Point Energy  =  -153.750504
   Corrected End Point Energy =  -153.750504
   Old End-Start Dist.        =     0.105350
   New End-Start Dist.        =     0.105348
   New End-Old End Dist.      =     0.000608
 CORRECTOR INTEGRATION CONVERGENCE:
   Recorrection delta-x convergence threshold:    0.001826
   Delta-x Convergence Met
 Point Number:   1          Path Number:   1
                    CURRENT STRUCTURE
                Cartesian Coordinates (Ang):                
 ---------------------------------------------------------------------
 Center     Atomic                     Coordinates (Angstroms)
 Number     Number                        X           Y           Z
 ---------------------------------------------------------------------
      1          6                    0.074788    0.504978    0.000000
      2          8                   -1.152069    0.047461    0.000000
      3          6                    1.176715   -0.487525    0.000000
      4          1                   -1.028590    1.176840    0.000000
      5          1                    0.790746   -1.514680    0.000000
      6          1                    1.810295   -0.311610    0.876184
      7          1                    1.810295   -0.311610   -0.876184
 ---------------------------------------------------------------------
   CHANGE IN THE REACTION COORDINATE =    0.10535
   NET REACTION COORDINATE UP TO THIS POINT =    0.10535
  # OF POINTS ALONG THE PATH =   1
  # OF STEPS =   1

 Calculating another point on the path.
 Point Number  2 in FORWARD path direction.
 Using LQA Reaction Path Following.
   LQA: T_Est iteration completed in    3 iterations.
 IRC-IRC-IRC-IRC-IRC-IRC-IRC-IRC-IRC-IRC-IRC-IRC-IRC-IRC-IRC-IRC-IRC-IRC
 Leave Link  123 at Sun Aug 22 16:08:33 2010, MaxMem=  786432000 cpu:       0.0
 (Enter /usr/local/bin/gaussian09-A.02/g09/l202.exe)
                          Input orientation:                          
 ---------------------------------------------------------------------
 Center     Atomic      Atomic             Coordinates (Angstroms)
 Number     Number       Type             X           Y           Z
 ---------------------------------------------------------------------
      1          6           0        0.078837    0.505097    0.000000
      2          8           0       -1.151980    0.049867    0.000000
      3          6           0        1.176189   -0.488461    0.000000
      4          1           0       -1.073656    1.149692    0.000000
      5          1           0        0.793174   -1.517079    0.000000
      6          1           0        1.809927   -0.311064    0.875944
      7          1           0        1.809927   -0.311064   -0.875944
 ---------------------------------------------------------------------
                    Distance matrix (angstroms):
                    1          2          3          4          5
     1  C    0.000000
     2  O    1.312306   0.000000
     3  C    1.480317   2.389596   0.000000
     4  H    1.320509   1.102611   2.783047   0.000000
     5  H    2.144638   2.497788   1.097614   3.255261   0.000000
     6  H    2.104773   3.109734   1.095614   3.349051   1.804310
     7  H    2.104773   3.109734   1.095614   3.349051   1.804310
                    6          7
     6  H    0.000000
     7  H    1.751888   0.000000
 Symmetry turned off by external request.
 Stoichiometry    C2H4O
 Framework group  CS[SG(C2H2O),X(H2)]
 Deg. of freedom    10
 Full point group                 CS      NOp   2
 Rotational constants (GHZ):     60.6272380      9.9349194      9.0066645
 Leave Link  202 at Sun Aug 22 16:08:33 2010, MaxMem=  786432000 cpu:       0.0
 (Enter /usr/local/bin/gaussian09-A.02/g09/l301.exe)
 Standard basis: 6-311++G(d,p) (5D, 7F)
 Ernie: Thresh=  0.10000D-02 Tol=  0.10000D-05 Strict=F.
 Integral buffers will be    131072 words long.
 Raffenetti 2 integral format.
 Two-electron integral symmetry is turned off.
    94 basis functions,   144 primitive gaussians,    97 cartesian basis functions
    12 alpha electrons       12 beta electrons
       nuclear repulsion energy        69.2099865489 Hartrees.
 IExCor=  402 DFT=T Ex+Corr=B3LYP ExCW=0 ScaHFX=  0.200000
 ScaDFX=  0.800000  0.720000  1.000000  0.810000 ScalE2=  1.000000  1.000000
 IRadAn=      5 IRanWt=     -1 IRanGd=            0 ICorTp=0
 NAtoms=    7 NActive=    7 NUniq=    7 SFac= 7.50D-01 NAtFMM=   80 NAOKFM=F Big=F
 Leave Link  301 at Sun Aug 22 16:08:33 2010, MaxMem=  786432000 cpu:       0.3
 (Enter /usr/local/bin/gaussian09-A.02/g09/l302.exe)
 NPDir=0 NMtPBC=     1 NCelOv=     1 NCel=       1 NClECP=     1 NCelD=      1
         NCelK=      1 NCelE2=     1 NClLst=     1 CellRange=     0.0.
 One-electron integrals computed using PRISM.
 NBasis=    94 RedAO= T  NBF=    94
 NBsUse=    94 1.00D-06 NBFU=    94
 Precomputing XC quadrature grid using
 IXCGrd= 2 IRadAn=           5 IRanWt=          -1 IRanGd=           0 AccXCQ= 1.00D-10.
 NRdTot=     594 NPtTot=      159582 NUsed=      163844 NTot=      163876
 NSgBfM=    97    97    97    97    97 NAtAll=     7     7.
 Leave Link  302 at Sun Aug 22 16:08:34 2010, MaxMem=  786432000 cpu:       1.1
 (Enter /usr/local/bin/gaussian09-A.02/g09/l303.exe)
 DipDrv:  MaxL=1.
 Leave Link  303 at Sun Aug 22 16:08:34 2010, MaxMem=  786432000 cpu:       0.2
 (Enter /usr/local/bin/gaussian09-A.02/g09/l401.exe)
 Initial guess read from the read-write file.
 B after Tr=     0.000000    0.000000    0.000000
         Rot=    1.000000    0.000000    0.000000    0.000000 Ang=   0.00 deg.
 Guess basis will be translated and rotated to current coordinates.
 Generating alternative initial guess.
 Harris functional with IExCor=  402 diagonalized for initial guess.
 ExpMin= 3.60D-02 ExpMax= 8.59D+03 ExpMxC= 1.30D+03 IAcc=3 IRadAn=         5 AccDes= 0.00D+00
 HarFok:  IExCor=  402 AccDes= 0.00D+00 IRadAn=         5 IDoV= 1
 ScaDFX=  1.000000  1.000000  1.000000  1.000000
 FoFCou: FMM=F IPFlag=           0 FMFlag=      100000 FMFlg1=           0
         NFxFlg=           0 DoJE=T BraDBF=F KetDBF=T FulRan=T
         Omega=  0.000000  0.000000  1.000000  0.000000  0.000000 ICntrl=     500 IOpCl=  0
         NMat0=    1 NMatS0=    1 NMatT0=    0 NMatD0=    1 NMtDS0=    0 NMtDT0=    0
         I1Cent=           4 NGrid=           0.
 Symmetry not used in FoFCou.
 Harris En= -153.786570341278    
 Leave Link  401 at Sun Aug 22 16:08:35 2010, MaxMem=  786432000 cpu:       3.7
 (Enter /usr/local/bin/gaussian09-A.02/g09/l502.exe)
 Closed shell SCF:
 Requested convergence on RMS density matrix=1.00D-08 within 128 cycles.
 Requested convergence on MAX density matrix=1.00D-06.
 Requested convergence on             energy=1.00D-06.
 No special actions if energy rises.
 Using DIIS extrapolation, IDIIS=  1040.
 Two-electron integral symmetry not used.
       163768 words used for storage of precomputed grid.
 Keep R1 ints in memory in canonical form, NReq=12429260.
 IEnd=      211319 IEndB=      211319 NGot=   786432000 MDV=   774948919
 LenX=   774948919 LenY=   774939069
 Symmetry not used in FoFDir.
 MinBra= 0 MaxBra= 2 Meth= 1.
 IRaf=       0 NMat=   1 IRICut=       1 DoRegI=T DoRafI=F ISym2E= 0 JSym2E=0.

 Cycle   1  Pass 1  IDiag  1:
 E= -153.751541089799    
 DIIS: error= 2.39D-03 at cycle   1 NSaved=   1.
 NSaved= 1 IEnMin= 1 EnMin= -153.751541089799     IErMin= 1 ErrMin= 2.39D-03
 ErrMax= 2.39D-03 EMaxC= 1.00D-01 BMatC= 8.14D-04 BMatP= 8.14D-04
 IDIUse=3 WtCom= 9.76D-01 WtEn= 2.39D-02
 Coeff-Com:  0.100D+01
 Coeff-En:   0.100D+01
 Coeff:      0.100D+01
 Gap=     0.166 Goal=   None    Shift=    0.000
 GapD=    0.166 DampG=1.000 DampE=1.000 DampFc=1.0000 IDamp=-1.
 RMSDP=7.72D-04 MaxDP=1.50D-02              OVMax= 2.18D-02

 Cycle   2  Pass 1  IDiag  1:
 E= -153.752641201672     Delta-E=       -0.001100111872 Rises=F Damp=F
 DIIS: error= 1.78D-03 at cycle   2 NSaved=   2.
 NSaved= 2 IEnMin= 2 EnMin= -153.752641201672     IErMin= 2 ErrMin= 1.78D-03
 ErrMax= 1.78D-03 EMaxC= 1.00D-01 BMatC= 2.77D-04 BMatP= 8.14D-04
 IDIUse=3 WtCom= 9.82D-01 WtEn= 1.78D-02
 Coeff-Com:  0.291D+00 0.709D+00
 Coeff-En:   0.000D+00 0.100D+01
 Coeff:      0.286D+00 0.714D+00
 Gap=     0.165 Goal=   None    Shift=    0.000
 RMSDP=2.93D-04 MaxDP=4.32D-03 DE=-1.10D-03 OVMax= 1.19D-02

 Cycle   3  Pass 1  IDiag  1:
 E= -153.752444970271     Delta-E=        0.000196231400 Rises=F Damp=F
 DIIS: error= 3.09D-03 at cycle   3 NSaved=   3.
 NSaved= 3 IEnMin= 2 EnMin= -153.752641201672     IErMin= 2 ErrMin= 1.78D-03
 ErrMax= 3.09D-03 EMaxC= 1.00D-01 BMatC= 5.59D-04 BMatP= 2.77D-04
 IDIUse=3 WtCom= 1.52D-01 WtEn= 8.48D-01
 Coeff-Com: -0.414D-01 0.604D+00 0.437D+00
 Coeff-En:   0.000D+00 0.621D+00 0.379D+00
 Coeff:     -0.630D-02 0.618D+00 0.388D+00
 Gap=     0.165 Goal=   None    Shift=    0.000
 RMSDP=1.46D-04 MaxDP=2.15D-03 DE= 1.96D-04 OVMax= 6.93D-03

 Cycle   4  Pass 1  IDiag  1:
 E= -153.752855233153     Delta-E=       -0.000410262882 Rises=F Damp=F
 DIIS: error= 2.43D-04 at cycle   4 NSaved=   4.
 NSaved= 4 IEnMin= 4 EnMin= -153.752855233153     IErMin= 4 ErrMin= 2.43D-04
 ErrMax= 2.43D-04 EMaxC= 1.00D-01 BMatC= 4.28D-06 BMatP= 2.77D-04
 IDIUse=3 WtCom= 9.98D-01 WtEn= 2.43D-03
 Coeff-Com: -0.160D-01 0.143D+00 0.395D-01 0.833D+00
 Coeff-En:   0.000D+00 0.000D+00 0.000D+00 0.100D+01
 Coeff:     -0.159D-01 0.143D+00 0.394D-01 0.834D+00
 Gap=     0.165 Goal=   None    Shift=    0.000
 RMSDP=2.68D-05 MaxDP=5.89D-04 DE=-4.10D-04 OVMax= 7.15D-04

 Cycle   5  Pass 1  IDiag  1:
 E= -153.752858367213     Delta-E=       -0.000003134060 Rises=F Damp=F
 DIIS: error= 6.53D-05 at cycle   5 NSaved=   5.
 NSaved= 5 IEnMin= 5 EnMin= -153.752858367213     IErMin= 5 ErrMin= 6.53D-05
 ErrMax= 6.53D-05 EMaxC= 1.00D-01 BMatC= 3.83D-07 BMatP= 4.28D-06
 IDIUse=1 WtCom= 1.00D+00 WtEn= 0.00D+00
 Coeff-Com: -0.283D-02-0.545D-02-0.366D-01 0.404D+00 0.641D+00
 Coeff:     -0.283D-02-0.545D-02-0.366D-01 0.404D+00 0.641D+00
 Gap=     0.165 Goal=   None    Shift=    0.000
 RMSDP=8.90D-06 MaxDP=1.66D-04 DE=-3.13D-06 OVMax= 2.09D-04

 Cycle   6  Pass 1  IDiag  1:
 E= -153.752858759745     Delta-E=       -0.000000392533 Rises=F Damp=F
 DIIS: error= 1.90D-05 at cycle   6 NSaved=   6.
 NSaved= 6 IEnMin= 6 EnMin= -153.752858759745     IErMin= 6 ErrMin= 1.90D-05
 ErrMax= 1.90D-05 EMaxC= 1.00D-01 BMatC= 1.89D-08 BMatP= 3.83D-07
 IDIUse=1 WtCom= 1.00D+00 WtEn= 0.00D+00
 Coeff-Com:  0.929D-03-0.157D-01-0.176D-01 0.309D-01 0.162D+00 0.839D+00
 Coeff:      0.929D-03-0.157D-01-0.176D-01 0.309D-01 0.162D+00 0.839D+00
 Gap=     0.165 Goal=   None    Shift=    0.000
 RMSDP=5.42D-06 MaxDP=1.34D-04 DE=-3.93D-07 OVMax= 6.82D-05

 Cycle   7  Pass 1  IDiag  1:
 E= -153.752858779839     Delta-E=       -0.000000020094 Rises=F Damp=F
 DIIS: error= 2.94D-06 at cycle   7 NSaved=   7.
 NSaved= 7 IEnMin= 7 EnMin= -153.752858779839     IErMin= 7 ErrMin= 2.94D-06
 ErrMax= 2.94D-06 EMaxC= 1.00D-01 BMatC= 6.20D-10 BMatP= 1.89D-08
 IDIUse=1 WtCom= 1.00D+00 WtEn= 0.00D+00
 Coeff-Com:  0.340D-03-0.443D-02-0.450D-02-0.273D-02 0.291D-01 0.270D+00
 Coeff-Com:  0.712D+00
 Coeff:      0.340D-03-0.443D-02-0.450D-02-0.273D-02 0.291D-01 0.270D+00
 Coeff:      0.712D+00
 Gap=     0.165 Goal=   None    Shift=    0.000
 RMSDP=4.27D-07 MaxDP=6.86D-06 DE=-2.01D-08 OVMax= 1.49D-05

 Cycle   8  Pass 1  IDiag  1:
 E= -153.752858780447     Delta-E=       -0.000000000608 Rises=F Damp=F
 DIIS: error= 8.23D-07 at cycle   8 NSaved=   8.
 NSaved= 8 IEnMin= 8 EnMin= -153.752858780447     IErMin= 8 ErrMin= 8.23D-07
 ErrMax= 8.23D-07 EMaxC= 1.00D-01 BMatC= 6.41D-11 BMatP= 6.20D-10
 IDIUse=1 WtCom= 1.00D+00 WtEn= 0.00D+00
 Coeff-Com:  0.867D-04-0.101D-02-0.945D-03-0.276D-02 0.311D-02 0.639D-01
 Coeff-Com:  0.308D+00 0.629D+00
 Coeff:      0.867D-04-0.101D-02-0.945D-03-0.276D-02 0.311D-02 0.639D-01
 Coeff:      0.308D+00 0.629D+00
 Gap=     0.165 Goal=   None    Shift=    0.000
 RMSDP=2.76D-07 MaxDP=7.06D-06 DE=-6.08D-10 OVMax= 3.27D-06

 Cycle   9  Pass 1  IDiag  1:
 E= -153.752858780511     Delta-E=       -0.000000000064 Rises=F Damp=F
 DIIS: error= 2.13D-07 at cycle   9 NSaved=   9.
 NSaved= 9 IEnMin= 9 EnMin= -153.752858780511     IErMin= 9 ErrMin= 2.13D-07
 ErrMax= 2.13D-07 EMaxC= 1.00D-01 BMatC= 3.49D-12 BMatP= 6.41D-11
 IDIUse=1 WtCom= 1.00D+00 WtEn= 0.00D+00
 Coeff-Com: -0.611D-05 0.176D-03 0.232D-03-0.638D-03-0.228D-02-0.105D-01
 Coeff-Com:  0.253D-01 0.198D+00 0.790D+00
 Coeff:     -0.611D-05 0.176D-03 0.232D-03-0.638D-03-0.228D-02-0.105D-01
 Coeff:      0.253D-01 0.198D+00 0.790D+00
 Gap=     0.165 Goal=   None    Shift=    0.000
 RMSDP=7.08D-08 MaxDP=1.55D-06 DE=-6.37D-11 OVMax= 1.36D-06

 Cycle  10  Pass 1  IDiag  1:
 E= -153.752858780515     Delta-E=       -0.000000000004 Rises=F Damp=F
 DIIS: error= 1.98D-08 at cycle  10 NSaved=  10.
 NSaved=10 IEnMin=10 EnMin= -153.752858780515     IErMin=10 ErrMin= 1.98D-08
 ErrMax= 1.98D-08 EMaxC= 1.00D-01 BMatC= 3.15D-14 BMatP= 3.49D-12
 IDIUse=1 WtCom= 1.00D+00 WtEn= 0.00D+00
 Coeff-Com: -0.236D-05 0.449D-04 0.602D-04-0.103D-03-0.488D-03-0.291D-02
 Coeff-Com: -0.103D-02 0.207D-01 0.149D+00 0.834D+00
 Coeff:     -0.236D-05 0.449D-04 0.602D-04-0.103D-03-0.488D-03-0.291D-02
 Coeff:     -0.103D-02 0.207D-01 0.149D+00 0.834D+00
 Gap=     0.165 Goal=   None    Shift=    0.000
 RMSDP=9.51D-09 MaxDP=2.11D-07 DE=-4.23D-12 OVMax= 1.17D-07

 SCF Done:  E(RB3LYP) =  -153.752858781     A.U. after   10 cycles
             Convg  =    0.9512D-08             -V/T =  2.0036
 KE= 1.531944966887D+02 PE=-4.979516076779D+02 EE= 1.217942656597D+02
 Leave Link  502 at Sun Aug 22 16:08:43 2010, MaxMem=  786432000 cpu:      34.5
 (Enter /usr/local/bin/gaussian09-A.02/g09/l801.exe)
 Range of M.O.s used for correlation:     1    94
 NBasis=    94 NAE=    12 NBE=    12 NFC=     0 NFV=     0
 NROrb=     94 NOA=    12 NOB=    12 NVA=    82 NVB=    82

 **** Warning!!: The largest alpha MO coefficient is  0.36425930D+02

 Leave Link  801 at Sun Aug 22 16:08:43 2010, MaxMem=  786432000 cpu:       0.2
 (Enter /usr/local/bin/gaussian09-A.02/g09/l1101.exe)
 Leave Link 1101 at Sun Aug 22 16:08:43 2010, MaxMem=  786432000 cpu:       0.2
 (Enter /usr/local/bin/gaussian09-A.02/g09/l1102.exe)
 Symmetrizing basis deriv contribution to polar:
 IMax=3 JMax=2 DiffMx= 0.00D+00
 Leave Link 1102 at Sun Aug 22 16:08:43 2010, MaxMem=  786432000 cpu:       0.2
 (Enter /usr/local/bin/gaussian09-A.02/g09/l1110.exe)
 Leave Link 1110 at Sun Aug 22 16:08:43 2010, MaxMem=  786432000 cpu:       0.2
 (Enter /usr/local/bin/gaussian09-A.02/g09/l1002.exe)
 Minotr:  Closed shell wavefunction.
 Leave Link 1002 at Sun Aug 22 16:08:44 2010, MaxMem=  786432000 cpu:       0.2
 (Enter /usr/local/bin/gaussian09-A.02/g09/l701.exe)
 Compute integral first derivatives.
 ... and contract with generalized density number  0.
 Leave Link  701 at Sun Aug 22 16:08:44 2010, MaxMem=  786432000 cpu:       0.8
 (Enter /usr/local/bin/gaussian09-A.02/g09/l702.exe)
 L702 exits ... SP integral derivatives will be done elsewhere.
 Leave Link  702 at Sun Aug 22 16:08:44 2010, MaxMem=  786432000 cpu:       0.2
 (Enter /usr/local/bin/gaussian09-A.02/g09/l703.exe)
 Compute integral first derivatives, UseDBF=F ICtDFT=           0.
 Integral derivatives from FoFDir, PRISM(SPDF).
 Calling FoFJK, ICntrl=      2147 FMM=F ISym2X=0 I1Cent= 0 IOpClX= 0 NMat=1 NMatS=1 NMatT=0.
 FoFCou: FMM=F IPFlag=           0 FMFlag=      100000 FMFlg1=         800
         NFxFlg=           0 DoJE=F BraDBF=F KetDBF=F FulRan=T
         Omega=  0.000000  0.000000  1.000000  0.000000  0.000000 ICntrl=    2147 IOpCl=  0
         NMat0=    1 NMatS0=    1 NMatT0=    0 NMatD0=    1 NMtDS0=    0 NMtDT0=    0
         I1Cent=           0 NGrid=           0.
 Symmetry not used in FoFCou.
 Leave Link  703 at Sun Aug 22 16:08:46 2010, MaxMem=  786432000 cpu:      10.4
 (Enter /usr/local/bin/gaussian09-A.02/g09/l716.exe)
 Dipole        = 3.79069852D-01-1.22339829D-01 5.01976238D-12
 Polarizability= 0.00000000D+00 0.00000000D+00 0.00000000D+00
                 0.00000000D+00 0.00000000D+00 0.00000000D+00
 -------------------------------------------------------------------
 Center     Atomic                   Forces (Hartrees/Bohr)
 Number     Number              X              Y              Z
 -------------------------------------------------------------------
      1        6           0.024674207    0.000696634    0.000000000
      2        8           0.001515485    0.019475082    0.000000000
      3        6          -0.003351134   -0.006090854    0.000000000
      4        1          -0.023799310   -0.013399250    0.000000000
      5        1           0.001351500   -0.001254826    0.000000000
      6        1          -0.000195373    0.000286607   -0.000142803
      7        1          -0.000195373    0.000286607    0.000142803
 -------------------------------------------------------------------
 Cartesian Forces:  Max     0.024674207 RMS     0.009229444
 Leave Link  716 at Sun Aug 22 16:08:46 2010, MaxMem=  786432000 cpu:       0.2
 (Enter /usr/local/bin/gaussian09-A.02/g09/l123.exe)
 IRC-IRC-IRC-IRC-IRC-IRC-IRC-IRC-IRC-IRC-IRC-IRC-IRC-IRC-IRC-IRC-IRC-IRC
 Pt  2 Step number   1 out of a maximum of  40
 Using modified Bulirsch-Stoer corrector interation.
   Using distance weighted interpolants to fit PES.
    Cycle     1 NS=     2
    Cycle     2 NS=     4 Truncation Error =  0.000231563
    Cycle     3 NS=     6 Truncation Error =  0.000031949
    Cycle     4 NS=     8 Truncation Error =  0.000005899
    Cycle     5 NS=    12 Truncation Error =  0.000000839
    Cycle     6 NS=    16 Truncation Error =  0.000000094
    Cycle     7 NS=    24 Truncation Error =  0.000000007
 BS completed in    7 cycles and      72 integration steps.
 SUMMARY OF CORRECTOR INTEGRATION:
   Original End Point Energy  =  -153.752859
   Corrected End Point Energy =  -153.752859
   Old End-Start Dist.        =     0.105313
   New End-Start Dist.        =     0.105310
   New End-Old End Dist.      =     0.001056
 CORRECTOR INTEGRATION CONVERGENCE:
   Recorrection delta-x convergence threshold:    0.001826
   Delta-x Convergence Met
 Point Number:   2          Path Number:   1
                    CURRENT STRUCTURE
                Cartesian Coordinates (Ang):                
 ---------------------------------------------------------------------
 Center     Atomic                     Coordinates (Angstroms)
 Number     Number                        X           Y           Z
 ---------------------------------------------------------------------
      1          6                    0.078811    0.505098    0.000000
      2          8                   -1.151942    0.049854    0.000000
      3          6                    1.176183   -0.488480    0.000000
      4          1                   -1.073938    1.150123    0.000000
      5          1                    0.793241   -1.517095    0.000000
      6          1                    1.809925   -0.311062    0.875931
      7          1                    1.809925   -0.311062   -0.875931
 ---------------------------------------------------------------------
   CHANGE IN THE REACTION COORDINATE =    0.10531
   NET REACTION COORDINATE UP TO THIS POINT =    0.21066
  # OF POINTS ALONG THE PATH =   2
  # OF STEPS =   1

 Calculating another point on the path.
 Point Number  3 in FORWARD path direction.
 Using LQA Reaction Path Following.
   LQA: T_Est iteration completed in    3 iterations.
 IRC-IRC-IRC-IRC-IRC-IRC-IRC-IRC-IRC-IRC-IRC-IRC-IRC-IRC-IRC-IRC-IRC-IRC
 Leave Link  123 at Sun Aug 22 16:08:47 2010, MaxMem=  786432000 cpu:       0.0
 (Enter /usr/local/bin/gaussian09-A.02/g09/l202.exe)
                          Input orientation:                          
 ---------------------------------------------------------------------
 Center     Atomic      Atomic             Coordinates (Angstroms)
 Number     Number       Type             X           Y           Z
 ---------------------------------------------------------------------
      1          6           0        0.082777    0.505235    0.000000
      2          8           0       -1.151747    0.052231    0.000000
      3          6           0        1.175639   -0.489470    0.000000
      4          1           0       -1.119633    1.123910    0.000000
      5          1           0        0.795839   -1.519562    0.000000
      6          1           0        1.809549   -0.310510    0.875660
      7          1           0        1.809549   -0.310510   -0.875660
 ---------------------------------------------------------------------
                    Distance matrix (angstroms):
                    1          2          3          4          5
     1  C    0.000000
     2  O    1.315015   0.000000
     3  C    1.477764   2.389596   0.000000
     4  H    1.352238   1.072160   2.805578   0.000000
     5  H    2.146686   2.502724   1.097879   3.264503   0.000000
     6  H    2.100943   3.109283   1.095742   3.377048   1.804493
     7  H    2.100943   3.109283   1.095742   3.377048   1.804493
                    6          7
     6  H    0.000000
     7  H    1.751321   0.000000
 Symmetry turned off by external request.
 Stoichiometry    C2H4O
 Framework group  CS[SG(C2H2O),X(H2)]
 Deg. of freedom    10
 Full point group                 CS      NOp   2
 Rotational constants (GHZ):     61.0458034      9.9140613      8.9983463
 Leave Link  202 at Sun Aug 22 16:08:47 2010, MaxMem=  786432000 cpu:       0.0
 (Enter /usr/local/bin/gaussian09-A.02/g09/l301.exe)
 Standard basis: 6-311++G(d,p) (5D, 7F)
 Ernie: Thresh=  0.10000D-02 Tol=  0.10000D-05 Strict=F.
 Integral buffers will be    131072 words long.
 Raffenetti 2 integral format.
 Two-electron integral symmetry is turned off.
    94 basis functions,   144 primitive gaussians,    97 cartesian basis functions
    12 alpha electrons       12 beta electrons
       nuclear repulsion energy        69.2325492081 Hartrees.
 IExCor=  402 DFT=T Ex+Corr=B3LYP ExCW=0 ScaHFX=  0.200000
 ScaDFX=  0.800000  0.720000  1.000000  0.810000 ScalE2=  1.000000  1.000000
 IRadAn=      5 IRanWt=     -1 IRanGd=            0 ICorTp=0
 NAtoms=    7 NActive=    7 NUniq=    7 SFac= 7.50D-01 NAtFMM=   80 NAOKFM=F Big=F
 Leave Link  301 at Sun Aug 22 16:08:47 2010, MaxMem=  786432000 cpu:       0.3
 (Enter /usr/local/bin/gaussian09-A.02/g09/l302.exe)
 NPDir=0 NMtPBC=     1 NCelOv=     1 NCel=       1 NClECP=     1 NCelD=      1
         NCelK=      1 NCelE2=     1 NClLst=     1 CellRange=     0.0.
 One-electron integrals computed using PRISM.
 NBasis=    94 RedAO= T  NBF=    94
 NBsUse=    94 1.00D-06 NBFU=    94
 Precomputing XC quadrature grid using
 IXCGrd= 2 IRadAn=           5 IRanWt=          -1 IRanGd=           0 AccXCQ= 1.00D-10.
 NRdTot=     594 NPtTot=      159582 NUsed=      163844 NTot=      163876
 NSgBfM=    97    97    97    97    97 NAtAll=     7     7.
 Leave Link  302 at Sun Aug 22 16:08:47 2010, MaxMem=  786432000 cpu:       1.1
 (Enter /usr/local/bin/gaussian09-A.02/g09/l303.exe)
 DipDrv:  MaxL=1.
 Leave Link  303 at Sun Aug 22 16:08:47 2010, MaxMem=  786432000 cpu:       0.2
 (Enter /usr/local/bin/gaussian09-A.02/g09/l401.exe)
 Initial guess read from the read-write file.
 B after Tr=     0.000000    0.000000    0.000000
         Rot=    1.000000    0.000000    0.000000    0.000000 Ang=   0.00 deg.
 Guess basis will be translated and rotated to current coordinates.
 Generating alternative initial guess.
 Harris functional with IExCor=  402 diagonalized for initial guess.
 ExpMin= 3.60D-02 ExpMax= 8.59D+03 ExpMxC= 1.30D+03 IAcc=3 IRadAn=         5 AccDes= 0.00D+00
 HarFok:  IExCor=  402 AccDes= 0.00D+00 IRadAn=         5 IDoV= 1
 ScaDFX=  1.000000  1.000000  1.000000  1.000000
 FoFCou: FMM=F IPFlag=           0 FMFlag=      100000 FMFlg1=           0
[...]
      6          1                    1.781203   -0.351048    0.867946
      7          1                    1.781203   -0.351048   -0.867946
 ---------------------------------------------------------------------
   CHANGE IN THE REACTION COORDINATE =    0.10516
   NET REACTION COORDINATE UP TO THIS POINT =    2.09815
  # OF POINTS ALONG THE PATH =  20
  # OF STEPS =   2

 Calculating another point on the path.
 Point Number 21 in FORWARD path direction.
 Using LQA Reaction Path Following.
   LQA: T_Est iteration completed in    2 iterations.
 PES minimum detected within a second-order step.
 Calculation of FORWARD path complete.
 Reaction path calculation complete.
 
                           ----------------------------
                           !      IRC Parameters      !
                           ! (Angstroms and Degrees)  !
 --------------------------                            --------------------------
 ! Name  Definition               TS            Product                         !
 --------------------------------------------------------------------------------
 ! R1    R(1,2)                  1.3064          1.3206                         !
 ! R2    R(1,3)                  1.4857          1.4934                         !
 ! R3    R(1,4)                  1.2651          1.8616                         !
 ! R4    R(2,4)                  1.1712          0.9668                         !
 ! R5    R(3,5)                  1.0969          1.0974                         !
 ! R6    R(3,6)                  1.0953          1.0968                         !
 ! R7    R(3,7)                  1.0953          1.0968                         !
 ! A1    A(2,1,3)              117.5325        109.6632                         !
 ! A2    A(3,1,4)              171.6935        139.2712                         !
 ! A3    A(1,3,5)              111.0977        116.6531                         !
 ! A4    A(1,3,6)              108.9303        106.8764                         !
 ! A5    A(1,3,7)              108.9303        106.8764                         !
 ! A6    A(5,3,6)              110.7275        110.5287                         !
 ! A7    A(5,3,7)              110.7275        110.5287                         !
 ! A8    A(6,3,7)              106.2856        104.6182                         !
 ! D1    D(2,1,3,5)              0.0             0.0                            !
 ! D2    D(2,1,3,6)           -122.2333       -124.2149                         !
 ! D3    D(2,1,3,7)            122.2333        124.2149                         !
 ! D4    D(4,1,3,5)              0.0             0.0                            !
 ! D5    D(4,1,3,6)           -122.2333       -124.2149                         !
 ! D6    D(4,1,3,7)            122.2333        124.2149                         !
 --------------------------------------------------------------------------------
 Energies reported relative to the TS energy of        -153.749670
 --------------------------------------------------------------------------
    Summary of reaction path following
 --------------------------------------------------------------------------
                        Energy   Rx Coord     R1        R2        R3
   1                    0.00000   0.00000   1.30641   1.48574   1.26512
   2                   -0.00083   0.10535   1.30939   1.48301   1.29184
   3                   -0.00319   0.21066   1.31225   1.48035   1.32094
   4                   -0.00676   0.31597   1.31499   1.47779   1.35273
   5                   -0.01117   0.42129   1.31760   1.47536   1.38735
   6                   -0.01605   0.52660   1.32008   1.47313   1.42473
   7                   -0.02105   0.63192   1.32235   1.47116   1.46488
   8                   -0.02594   0.73723   1.32437   1.46956   1.50700
   9                   -0.03053   0.84255   1.32606   1.46841   1.55039
  10                   -0.03469   0.94787   1.32737   1.46782   1.59413
  11                   -0.03836   1.05317   1.32823   1.46789   1.63750
  12                   -0.04149   1.15846   1.32861   1.46876   1.67950
  13                   -0.04405   1.26366   1.32840   1.47068   1.71924
  14                   -0.04608   1.36870   1.32774   1.47349   1.75635
  15                   -0.04760   1.47328   1.32658   1.47734   1.78926
  16                   -0.04870   1.57717   1.32508   1.48205   1.81634
  17                   -0.04947   1.68034   1.32348   1.48691   1.83592
  18                   -0.05005   1.78360   1.32219   1.49078   1.84797
  19                   -0.05050   1.88808   1.32138   1.49289   1.85449
  20                   -0.05085   1.99299   1.32090   1.49356   1.85857
  21                   -0.05109   2.09815   1.32063   1.49337   1.86160
                          R4        R5        R6        R7        A1
   1                    1.17125   1.09694   1.09534   1.09534 117.53250
   2                    1.13611   1.09728   1.09548   1.09548 117.53933
   3                    1.10303   1.09759   1.09561   1.09561 117.54281
   4                    1.07268   1.09786   1.09574   1.09574 117.53897
   5                    1.04577   1.09809   1.09586   1.09586 117.52296
   6                    1.02284   1.09830   1.09598   1.09598 117.49045
   7                    1.00468   1.09847   1.09609   1.09609 117.43361
   8                    0.99094   1.09860   1.09620   1.09620 117.34902
   9                    0.98128   1.09871   1.09631   1.09631 117.23053
  10                    0.97477   1.09878   1.09642   1.09642 117.07255
  11                    0.97077   1.09882   1.09653   1.09653 116.86646
  12                    0.96821   1.09881   1.09663   1.09663 116.59929
  13                    0.96679   1.09874   1.09675   1.09675 116.24019
  14                    0.96623   1.09864   1.09687   1.09687 115.78724
  15                    0.96608   1.09849   1.09698   1.09698 115.20208
  16                    0.96616   1.09830   1.09708   1.09708 114.45399
  17                    0.96630   1.09809   1.09714   1.09714 113.54752
  18                    0.96647   1.09788   1.09713   1.09713 112.54965
  19                    0.96660   1.09771   1.09706   1.09706 111.54866
  20                    0.96672   1.09755   1.09696   1.09696 110.58845
  21                    0.96678   1.09743   1.09683   1.09683 109.66317
                          A2        A3        A4        A5        A6
   1                  171.69353 111.09773 108.93033 108.93033 110.72747
   2                  169.32850 111.41486 108.80043 108.80043 110.71742
   3                  167.07116 111.73847 108.66923 108.66923 110.70607
   4                  164.93170 112.07264 108.53503 108.53503 110.69355
   5                  162.91994 112.42115 108.39606 108.39606 110.68021
   6                  161.04010 112.78707 108.25086 108.25086 110.66633
   7                  159.30002 113.17558 108.09707 108.09707 110.65248
   8                  157.67722 113.58698 107.93421 107.93421 110.63904
   9                  156.14728 114.02412 107.76069 107.76069 110.62665
  10                  154.67247 114.48924 107.57507 107.57507 110.61591
  11                  153.22311 114.98454 107.37600 107.37600 110.60730
  12                  151.76021 115.51207 107.16184 107.16184 110.60161
  13                  150.26297 116.07364 106.93197 106.93197 110.59905
  14                  148.72999 116.65022 106.69450 106.69450 110.59848
  15                  147.15419 117.21537 106.46174 106.46174 110.59898
  16                  145.55979 117.71029 106.26206 106.26206 110.59719
  17                  144.01777 118.01897 106.14932 106.14932 110.58988
  18                  142.61779 118.03281 106.17282 106.17282 110.57616
  19                  141.39635 117.73006 106.33910 106.33910 110.55985
  20                  140.29913 117.24221 106.58666 106.58666 110.54425
  21                  139.27120 116.65311 106.87639 106.87639 110.52871
                          A7        A8        D1        D2        D3
   1                  110.72747 106.28558   0.00000-122.23328 122.23328
   2                  110.71742 106.22584   0.00000-122.33899 122.33899
   3                  110.70607 106.16320   0.00000-122.44620 122.44620
   4                  110.69355 106.09618   0.00000-122.55663 122.55663
   5                  110.68021 106.02344   0.00000-122.67194 122.67194
   6                  110.66633 105.94364   0.00000-122.79354 122.79354
   7                  110.65248 105.85431   0.00000-122.92391 122.92391
   8                  110.63904 105.75488   0.00000-123.06339 123.06339
   9                  110.62665 105.64352   0.00000-123.21359 123.21359
  10                  110.61591 105.51877   0.00000-123.37574 123.37574
  11                  110.60730 105.37910   0.00000-123.55098 123.55098
  12                  110.60161 105.22295   0.00000-123.74053 123.74053
  13                  110.59905 105.04809   0.00000-123.94545 123.94545
  14                  110.59848 104.86165   0.00000-124.15756 124.15756
  15                  110.59898 104.67104   0.00000-124.36709 124.36709
  16                  110.59719 104.49558   0.00000-124.55136 124.55136
  17                  110.58988 104.37216   0.00000-124.66816 124.66816
  18                  110.57616 104.33418   0.00000-124.67963 124.67963
  19                  110.55985 104.38607   0.00000-124.58026 124.58026
  20                  110.54425 104.48745   0.00000-124.41663 124.41663
  21                  110.52871 104.61822   0.00000-124.21493 124.21493
                          D4        D5        D6
   1                    0.00000-122.23328 122.23328
   2                    0.00000-122.33899 122.33899
   3                    0.00000-122.44620 122.44620
   4                    0.00000-122.55663 122.55663
   5                    0.00000-122.67194 122.67194
   6                    0.00000-122.79354 122.79354
   7                    0.00000-122.92391 122.92391
   8                    0.00000-123.06339 123.06339
   9                    0.00000-123.21359 123.21359
  10                    0.00000-123.37574 123.37574
  11                    0.00000-123.55098 123.55098
  12                    0.00000-123.74053 123.74053
  13                    0.00000-123.94545 123.94545
  14                    0.00000-124.15756 124.15756
  15                    0.00000-124.36709 124.36709
  16                    0.00000-124.55136 124.55136
  17                    0.00000-124.66816 124.66816
  18                    0.00000-124.67963 124.67963
  19                    0.00000-124.58026 124.58026
  20                    0.00000-124.41663 124.41663
  21                    0.00000-124.21493 124.21493
 --------------------------------------------------------------------------
 
 Total number of points:                   20
 Total number of gradient calculations:    34
 Total number of Hessian calculations:      5
 IRC-IRC-IRC-IRC-IRC-IRC-IRC-IRC-IRC-IRC-IRC-IRC-IRC-IRC-IRC-IRC-IRC-IRC
 Leave Link  123 at Sun Aug 22 16:19:21 2010, MaxMem=  786432000 cpu:       0.1
 (Enter /usr/local/bin/gaussian09-A.02/g09/l202.exe)
                          Input orientation:                          
 ---------------------------------------------------------------------
 Center     Atomic      Atomic             Coordinates (Angstroms)
 Number     Number       Type             X           Y           Z
 ---------------------------------------------------------------------
      1          6           0        0.115182    0.573749    0.000000
      2          8           0       -1.098121    0.052223    0.000000
      3          6           0        1.132182   -0.519786    0.000000
      4          1           0       -1.734938    0.779643    0.000000
      5          1           0        0.749150   -1.548211    0.000000
      6          1           0        1.781217   -0.351066    0.867946
      7          1           0        1.781217   -0.351066   -0.867946
 ---------------------------------------------------------------------
                    Distance matrix (angstroms):
                    1          2          3          4          5
     1  C    0.000000
     2  O    1.320642   0.000000
     3  C    1.493354   2.302487   0.000000
     4  H    1.861541   0.966786   3.147839   0.000000
     5  H    2.214640   2.444136   1.097438   3.404349   0.000000
     6  H    2.093868   3.034232   1.096834   3.794098   1.803233
     7  H    2.093868   3.034232   1.096834   3.794098   1.803233
                    6          7
     6  H    0.000000
     7  H    1.735892   0.000000
 Symmetry turned off by external request.
 Stoichiometry    C2H4O
 Framework group  CS[SG(C2H2O),X(H2)]
 Deg. of freedom    10
 Full point group                 CS      NOp   2
 Rotational constants (GHZ):     57.3059585     10.1985478      9.1329028
 Leave Link  202 at Sun Aug 22 16:19:21 2010, MaxMem=  786432000 cpu:       0.0
 (Enter /usr/local/bin/gaussian09-A.02/g09/l601.exe)
 Copying SCF densities to generalized density rwf, IOpCl= 0 IROHF=0.

 **********************************************************************

            Population analysis using the SCF density.

 **********************************************************************

 Alpha  occ. eigenvalues --  -19.20219 -10.23942 -10.17140  -1.10909  -0.76197
 Alpha  occ. eigenvalues --   -0.62994  -0.49199  -0.44954  -0.44754  -0.39927
 Alpha  occ. eigenvalues --   -0.39284  -0.21796
 Alpha virt. eigenvalues --   -0.04850  -0.01253   0.00597   0.03343   0.03524
 Alpha virt. eigenvalues --    0.06676   0.07687   0.09125   0.09178   0.09571
 Alpha virt. eigenvalues --    0.11204   0.12815   0.15066   0.16558   0.17763
 Alpha virt. eigenvalues --    0.18000   0.20183   0.22502   0.23799   0.28383
 Alpha virt. eigenvalues --    0.30172   0.32165   0.36668   0.42878   0.46885
 Alpha virt. eigenvalues --    0.49035   0.53807   0.55902   0.59085   0.63728
 Alpha virt. eigenvalues --    0.64129   0.67385   0.70541   0.84749   0.85905
 Alpha virt. eigenvalues --    0.93732   0.97375   1.02745   1.03665   1.18130
 Alpha virt. eigenvalues --    1.24941   1.41248   1.43328   1.44982   1.46154
 Alpha virt. eigenvalues --    1.48184   1.54594   1.57833   1.60069   1.67056
 Alpha virt. eigenvalues --    1.74402   1.85098   1.89571   1.95243   2.04537
 Alpha virt. eigenvalues --    2.13904   2.21752   2.27850   2.44243   2.49664
 Alpha virt. eigenvalues --    2.50949   2.52818   2.55361   2.60463   2.71239
 Alpha virt. eigenvalues --    2.78313   2.94337   3.03375   3.04551   3.17734
 Alpha virt. eigenvalues --    3.33000   3.60522   3.71815   3.76467   3.87555
 Alpha virt. eigenvalues --    4.14856   4.91895   5.34045   5.60514  23.65879
 Alpha virt. eigenvalues --   23.94516  49.81885
          Condensed to atoms (all electrons):
              1          2          3          4          5          6
     1  C    6.364683   0.217238  -0.195458  -0.127155   0.061899  -0.033614
     2  O    0.217238   7.766962  -0.151398   0.287485   0.006126   0.003961
     3  C   -0.195458  -0.151398   5.609544   0.038837   0.290041   0.387723
     4  H   -0.127155   0.287485   0.038837   0.487309  -0.006410   0.000051
     5  H    0.061899   0.006126   0.290041  -0.006410   0.613936  -0.034027
     6  H   -0.033614   0.003961   0.387723   0.000051  -0.034027   0.536492
     7  H   -0.033614   0.003961   0.387723   0.000051  -0.034027  -0.027099
              7
     1  C   -0.033614
     2  O    0.003961
     3  C    0.387723
     4  H    0.000051
     5  H   -0.034027
     6  H   -0.027099
     7  H    0.536492
 Mulliken atomic charges:
              1
     1  C   -0.253977
     2  O   -0.134334
     3  C   -0.367011
     4  H    0.319832
     5  H    0.102462
     6  H    0.166514
     7  H    0.166514
 Sum of Mulliken atomic charges =   0.00000
 Mulliken charges with hydrogens summed into heavy atoms:
              1
     1  C   -0.253977
     2  O    0.185498
     3  C    0.068479
 Sum of Mulliken charges with hydrogens summed into heavy atoms =   0.00000
 APT atomic charges:
              1
     1  C   -0.475432
     2  O   -0.432167
     3  C   -0.789578
     4  H    0.655293
     5  H    0.240546
     6  H    0.400669
     7  H    0.400669
 Sum of APT charges=   0.00000
 APT Atomic charges with hydrogens summed into heavy atoms:
              1
     1  C   -0.475432
     2  O    0.223126
     3  C    0.252306
     4  H    0.000000
     5  H    0.000000
     6  H    0.000000
     7  H    0.000000
 Sum of APT charges=   0.00000
 Electronic spatial extent (au):  <R**2>=            169.2233
 Charge=              0.0000 electrons
 Dipole moment (field-independent basis, Debye):
    X=             -0.6910    Y=             -0.6885    Z=              0.0000  Tot=              0.9755
 Quadrupole moment (field-independent basis, Debye-Ang):
   XX=            -14.9273   YY=            -22.2458   ZZ=            -18.9144
   XY=             -3.7860   XZ=              0.0000   YZ=              0.0000
 Traceless Quadrupole moment (field-independent basis, Debye-Ang):
   XX=              3.7685   YY=             -3.5500   ZZ=             -0.2185
   XY=             -3.7860   XZ=              0.0000   YZ=              0.0000
 Octapole moment (field-independent basis, Debye-Ang**2):
  XXX=            -14.7994  YYY=             -5.5476  ZZZ=              0.0000  XYY=             -6.8369
  XXY=              5.2256  XXZ=              0.0000  XZZ=             -1.6912  YZZ=             -0.1760
  YYZ=              0.0000  XYZ=              0.0000
 Hexadecapole moment (field-independent basis, Debye-Ang**3):
 XXXX=           -120.8823 YYYY=            -71.7807 ZZZZ=            -27.3070 XXXY=              6.4106
 XXXZ=              0.0000 YYYX=             12.2941 YYYZ=              0.0000 ZZZX=              0.0000
 ZZZY=              0.0000 XXYY=            -31.9397 XXZZ=            -25.5256 YYZZ=            -16.5178
 XXYZ=              0.0000 YYXZ=              0.0000 ZZXY=              4.9467
 N-N= 6.911283399363D+01 E-N=-4.978683507701D+02  KE= 1.532027470542D+02
  Exact polarizability:   0.000   0.000   0.000   0.000   0.000   0.000
 Approx polarizability:  50.732  -1.828  41.487   0.000   0.000  37.480
 No NMR shielding tensors so no spin-rotation constants.
 Leave Link  601 at Sun Aug 22 16:19:21 2010, MaxMem=  786432000 cpu:       0.8
 (Enter /usr/local/bin/gaussian09-A.02/g09/l716.exe)
 Dipole        =-2.71873635D-01-2.70872245D-01 2.24032532D-12
 Polarizability= 0.00000000D+00 0.00000000D+00 0.00000000D+00
                 0.00000000D+00 0.00000000D+00 0.00000000D+00
 -------------------------------------------------------------------
 Center     Atomic                   Forces (Hartrees/Bohr)
 Number     Number              X              Y              Z
 -------------------------------------------------------------------
      1        6           0.000455043    0.002841017    0.000000000
      2        8           0.003353894   -0.002339222    0.000000000
      3        6          -0.002542551    0.000378391    0.000000000
      4        1          -0.000131022   -0.000441921    0.000000000
      5        1          -0.000823274    0.000262129    0.000000000
      6        1          -0.000156045   -0.000350196    0.000025811
      7        1          -0.000156045   -0.000350196   -0.000025811
 -------------------------------------------------------------------
 Cartesian Forces:  Max     0.003353894 RMS     0.001250924
 Leave Link  716 at Sun Aug 22 16:19:21 2010, MaxMem=  786432000 cpu:       0.2
 (Enter /usr/local/bin/gaussian09-A.02/g09/l9999.exe)

 This type of calculation cannot be archived.


     "IF I COULD JUST GET IT ON PAPER"
 LIFE AND INK, THEY RUN OUT AT THE SAME TIME,
 OR SO SAID MY OLD FRIEND THE SQUID.
     -- JIMMY BUFFETT, 1981
 Job cpu time:  0 days  0 hours 48 minutes 45.4 seconds.
 File lengths (MBytes):  RWF=     12 Int=      0 D2E=      0 Chk=      3 Scr=      1
 Normal termination of Gaussian 09 at Sun Aug 22 16:19:21 2010.
